<?xml version="1.0"?>
<VTKFile type="UnstructuredGrid"  version="0.1"  >
<UnstructuredGrid>
<Piece  NumberOfPoints="200" NumberOfCells="338">
<Points>
<DataArray  type="Float64"  NumberOfComponents="3"  format="ascii">0.2607803159922026 0.2000727136295815 0  0.2677053789419034 0.1964246479135325 0  0.267698176732111 0.2039977513680092 0  0.2751288526855082 0.20000000000002 0  0.2603913042767976 0.1945999920783741 0  0.2639263993299336 0.19 0  0.25 0.2 0  0.2497468076502589 0.2050254481002335 0  0.2550657455369551 0.2034088125358657 0  0.2825131256993216 0.2035478995978015 0  0.2825051229162361 0.1959834479681729 0  0.2894621222999649 0.1998691686390484 0  0.2713947015670686 0.19 0  0.2788630038040554 0.21 0  0.2863313060411479 0.21 0  0.3012679105156187 0.19 0  0.2937996082784807 0.19 0  0.2950977245127906 0.1961819304477774 0  0.2601812407614425 0.2056861609747042 0  0.2497468076502614 0.1949745518997913 0  0.2548908499171161 0.1966940311614271 0  0.2751288526855081 0.205697194228819 0  0.2751288526856362 0.1943028057711959 0  0.2895549462647731 0.1944069323160756 0  0.2564580970927985 0.19 0  0.2525889069107169 0.1926036384190297 0  0.2897864851748124 0.2055930218738881 0  0.25645809709277 0.21 0  0.25261805618068 0.2074135021971937 0  0.2639263993298655 0.21 0  0.271394701566961 0.21 0  0.2863313060413428 0.19 0  0.2788630038042048 0.19 0  0.2937996082782405 0.21 0  0.2489897948556636 0.19 0  0.2489897948556636 0.21 0  0.3411792619035872 0.1007807988883264 0  0.3223547013037051 0.0811661342953541 0  0.3444094697767079 0.06991525711561337 0  0.2731077660562961 0.05508844879223635 0  0.2987388406956894 0.03154986994134981 0  0.2542757755299287 0.02753888901404131 0  0.3578728954606922 0.1299960675997348 0  0.3428550702839791 0.1207298864326248 0  0.3606088315611094 0.1037277084934985 0  0.3655464778159961 0.1466879707354811 0  0.3738358170836363 0.1565872175614931 0  0.383930166391577 0.149077512173999 0  0.2767628315692916 0.1210799475693868 0  0.260361447596534 0.1229759280558447 0  0.2739511166480145 0.1012903426171407 0  0.3642910294882131 0.08514217524358583 0  0.3684404229859068 0.05879875930223131 0  0.3866266297147894 0.03466711669742863 0  0.3886771468199661 0.07134613381357163 0  0.2571393426600714 0.09909224058133874 0  0.2802365149396702 0.2293267412254819 0  0.2888197773682229 0.2217624015035644 0  0.2799011483571476 0.2201540359780956 0  0.3718691980658081 0.1185113859721947 0  0.4143465137990051 0.05322961011747924 0  0.2798983539554935 0.1725715317274126 0  0.2887875715604008 0.1784526411902859 0  0.2798265752054099 0.1801908109055989 0  0.3750556316230105 0.1339831864103567 0  0.2607466101664424 0.2266930975791233 0  0.271385042995999 0.2220255791858506 0  0.2640363109795177 0.2179944263838653 0  0.2544808243315743 0.2458504951732927 0  0.2658768459325225 0.2418747601129979 0  0.2588244756332078 0.23611127323402 0  0.2516468834717856 0.2324930308055588 0  0.2510679533716966 0.2249523323210773 0  0.2981367854000865 0.1637235218245288 0  0.3103932646056649 0.1564266048246118 0  0.2950877208405285 0.1519675848591752 0  0.2433956710264305 0.2381734167068584 0  0.2460613805257083 0.2485222416480207 0  0.2507569858396673 0.2399489856244889 0  0.2473666618189879 0.1284124620716267 0  0.2591911171199197 0.1383198970354824 0  0.2490293115886795 0.1431700167801526 0  0.2607333124992295 0.173299215235651 0  0.2711961111491841 0.1784474567953763 0  0.2640363109795686 0.1820055736160818 0  0.250265698216607 0.2591459325753045 0  0.2627897304119148 0.25271037528669 0  0.2517589812677475 0.167282708207138 0  0.2510789311637825 0.1750218956597876 0  0.2397046897252064 0.2463916348380001 0  0.2718919859823887 0.1383852123087317 0  0.2693249379754523 0.232253714048252 0  0.2741016576309132 0 0  0.3196154281700737 0.10148243027238 0  0.3418349201952718 0.1615259010424026 0  0.3538118084207602 0.155339561103512 0  0.3411001259021957 0.1498303228783227 0  0.29753375939705 0.1013617902187171 0  0.3134318661301231 0.1190195115870869 0  0.2957425685352801 0.1395139256920557 0  0.294176374911891 0.1223585976984507 0  0.3100661524214186 0.1349017352953573 0  0.2599422691915476 0.1624889056516055 0  0.246996525252926 0.2170682926548348 0  0.2561841824185058 0.2195000859865352 0  0.2469965252529372 0.1829317073451959 0  0.2561841824184873 0.1804999140134954 0  0.2854688561834498 0.2412236914981949 0  0.2752342263051384 0.2394149830158712 0  0.2437828577465094 0.1110862473067074 0  0.2400332147834255 0.1700443375285386 0  0.2352133972704371 0.1645032867342007 0  0.2437579188981839 0.1628382198077666 0  0.350756438860385 0.03770412947703979 0  0.2788297821231576 0.08311242826819275 0  0.252515959816117 0.07648796931448625 0  0.2352133972703547 0.2354967132658811 0  0.2400332147833751 0.2299556624715287 0  0.2898993665208313 0.2148884498665536 0  0.2825971549226016 0.2141870669404288 0  0.2533462554466219 0.2143516991142523 0  0.30960746080092 0.166771572284543 0  0.2533462554466303 0.18564830088576 0  0.3556974926295285 0 0  0.2836036752964591 0.1339631263286828 0  0.2900654571599118 0.1851244352956092 0  0.2825971549227736 0.1858129330595456 0  0.2693200344911409 0.1703624615729042 0  0.2885139350435456 0.1684952536990488 0  0.3000697101066698 0.06520450816453537 0  0.3871533862426518 0.1004535961197204 0  0.2370670604668411 0.2561437100875122 0  0.3238690756099825 0.05273873904001699 0  0.2439893735792577 0.2237683615780412 0  0.2306200006656481 0.2483744735801409 0  0.2439893735792749 0.1762316384219906 0  0.2755531838498857 0.1520654843226777 0  0.2695935332846553 0.1606647427601511 0  0.2781997444103622 0.1631408916221692 0  0.2751288526855082 0.2504894696471402 0  0.3881774741414789 0.1375237980955535 0  0.3038812691128678 0.0841994561932124 0  0.387533158164613 0.1229770158841918 0  0.3298647941762166 0.154951077946048 0  0.3304301052933576 0.1665413931712652 0  0.3024350031838242 0.1697562882658549 0  0.3527566348301668 0.1449455739485435 0  0.3342547353003448 0.176221364131867 0  0.3420590264647178 0.171174416987776 0  0.4121197549442807 0.08306196356607598 0  0.2372267379181886 0.156514666897516 0  0.2973900081628705 0.1824599091601672 0  0.3987229542472677 0 0  0.2862543528039888 0.1579205993776223 0  0.2537568794636046 0.1534616887828778 0  0.2638326913414331 0.1507903208689992 0  0.2296339016332438 0.1597280261969788 0  0.2460399618407353 0.2294379412176375 0  0.2460399618407632 0.1705620587824227 0  0.3193133202755013 0.1460459073405674 0  0.3272191874237106 0.1310770977832356 0  0.3056626962672545 0.1462841663847227 0  0.3141745521465447 0 0  0.235672688557912 0.2416805760911849 0  0.2448734012151204 0.1541363176121021 0  0.2296339016331197 0.2402719738031125 0  0.2416741650815652 0.0950846504064212 0  0.2853857357028925 0.1110828225342078 0  0.3534047339781095 0.1664079800909994 0  0.3198867512741007 0.1691875758392534 0  0.3199291472277772 0.1784487091275169 0  0.3133418865444516 0.1745347694704089 0  0.3264689647572548 0.1745410252268062 0  0.3871533862426517 0.1622083790690482 0  0.3758459195692864 0.1665688727818971 0  0.3272791508030818 0.1825813053721834 0  0.334769373574778 0.1838585991320073 0  0.3198495352051576 0.1594009174606977 0  0.3245469487057487 0.02783302239578031 0  0.2565972207468325 0.1466368372771288 0  0.2846721669765922 0.1457902303354471 0  0.3052148703289762 0.176135200920133 0  0.3125543224194783 0.1825714068210268 0  0.3050224637686886 0.1840003691157356 0  0.350235271979906 0.176105405901683 0  0.3422976980851364 0.1814371791041619 0  0.2754241708482248 0.2153487639899751 0  0.2751288526856362 0.184558060069257 0  0.2973772572263381 0.2175617982546508 0  0.3087362127527544 0.19 0  0.2507143478459989 0.1602321207261197 0  0.3646043070190422 0.1595814785132252 0  0.2968565228222139 0.1734776848403526 0  0.3316683313872936 0.1433924279692641 0  0.3419037881374767 0.1376590441034941 0  0.2692521927396536 0.2151979606124073 0  0.2691876260717925 0.1848526873929683 0  0.2601922482113177 0.2140493078607503 0  0.260192248211366 0.1859506921392313 0  0.3296083350321284 0.1156006243865368 0  </DataArray>
</Points>
<Cells>
<DataArray  type="UInt32"  Name="connectivity"  format="ascii">0 1 2  3 1 2  0 1 4  5 1 4  6 7 8  3 9 10  11 9 10  12 5 1  13 14 9  15 16 17  0 2 18  6 19 20  3 2 21  3 10 22  6 8 20  11 10 23  13 9 21  3 9 21  24 20 25  3 1 22  12 1 22  14 9 26  11 9 26  27 8 28  29 30 2  31 32 10  0 8 20  7 8 28  29 2 18  24 20 4  30 2 21  27 8 18  32 10 22  19 20 25  31 10 23  5 24 4  27 29 18  0 20 4  16 31 23  14 33 26  32 12 22  30 13 21  0 8 18  34 19 25  35 7 28  16 17 23  11 17 23  34 24 25  35 27 28  36 37 38  39 40 41  42 43 44  45 46 47  48 49 50  36 51 38  52 53 54  55 49 50  56 57 58  59 42 44  60 53 54  61 62 63  45 47 64  65 66 67  68 69 70  65 71 72  73 74 75  76 77 78  79 80 81  82 83 84  68 85 86  82 87 88  89 76 77  80 49 90  65 66 91  92 40 41  56 66 58  36 37 93  94 95 96  97 98 93  99 100 101  61 83 63  82 87 102  103 104 72  97 98 100  48 49 90  56 66 91  105 106 88  56 107 108  55 49 109  110 111 112  52 113 38  55 114 115  65 91 70  116 117 76  57 118 119  103 104 120  73 74 121  105 106 122  68 69 86  123 113 53  99 100 124  55 114 50  62 125 126  61 83 127  61 62 128  39 129 40  82 102 127  130 59 44  65 104 72  57 58 119  131 89 77  97 114 50  132 113 38  65 104 67  82 106 88  36 51 44  62 63 126  133 103 72  68 77 78  131 89 134  105 135 88  82 106 84  82 83 127  65 71 70  36 43 44  68 70 78  132 129 40  79 49 109  136 137 138  139 69 86  140 47 64  56 91 108  79 80 49  68 85 77  97 114 141  97 93 141  130 59 142  94 143 144  73 121 145  95 96 146  98 100 101  147 144 148  60 149 54  111 112 150  130 51 44  39 114 129  69 91 70  52 113 53  48 124 90  15 16 151  123 152 53  73 153 128  154 102 155  48 100 124  94 144 148  111 156 150  39 114 115  136 137 155  117 76 157  110 112 158  130 51 54  159 160 101  136 153 138  74 75 161  61 128 138  131 85 77  132 37 129  92 162 40  73 153 75  116 76 163  137 102 127  154 81 164  139 69 108  137 102 155  165 134 163  130 149 54  55 115 166  97 50 167  61 127 138  94 95 168  159 74 161  80 155 90  169 170 171  169 170 172  173 46 174  147 175 176  169 121 177  162 123 178  52 51 38  94 143 96  153 128 138  114 129 141  169 144 177  139 107 108  80 155 179  71 76 157  136 153 180  87 112 158  136 155 90  181 182 183  37 93 141  184 185 148  147 185 148  159 74 177  66 58 186  15 151 183  123 113 178  181 151 183  83 63 187  33 188 118  184 168 148  173 46 47  189 15 183  181 182 171  136 180 90  147 175 172  16 151 125  37 129 141  98 160 101  154 102 190  87 102 190  89 76 163  132 37 38  95 168 191  159 101 161  52 51 54  159 143 177  189 182 183  46 174 191  45 42 64  181 151 192  74 121 177  89 134 163  159 143 193  140 142 64  194 160 43  153 75 180  69 91 108  73 128 192  99 124 180  143 144 177  94 168 148  159 160 193  147 185 176  62 128 192  29 30 195  137 127 138  194 42 43  12 5 196  29 67 195  5 84 196  45 42 146  45 95 191  45 46 191  132 40 178  194 160 193  57 188 118  124 180 90  62 151 192  30 13 186  181 121 171  32 12 187  194 42 146  143 96 193  62 151 125  170 182 171  71 70 78  48 100 167  14 33 118  35 27 120  16 31 125  34 24 122  169 121 171  154 81 179  59 142 64  170 175 172  29 67 197  71 76 78  45 95 146  5 84 198  27 120 197  35 103 120  112 150 164  24 122 198  34 105 122  133 72 157  87 112 190  104 120 197  147 144 172  169 144 172  98 160 199  117 133 157  165 116 163  135 88 158  106 122 198  135 110 158  97 100 167  104 67 197  98 93 199  59 42 64  106 84 198  154 155 179  73 192 145  13 186 119  181 121 145  132 113 178  32 187 126  27 29 197  5 24 198  162 40 178  99 101 161  13 14 119  31 32 126  14 118 119  31 125 126  194 96 146  99 75 180  66 67 195  48 50 167  83 84 196  112 164 190  71 72 157  87 88 158  58 186 119  63 187 126  80 81 179  36 93 199  66 186 195  160 43 199  83 187 196  99 75 161  30 186 195  154 164 190  12 187 196  194 96 193  181 192 145  36 43 199  55 109 166  </DataArray>
<DataArray  type="UInt32"  Name="offsets"  format="ascii">3 6 9 12 15 18 21 24 27 30 33 36 39 42 45 48 51 54 57 60 63 66 69 72 75 78 81 84 87 90 93 96 99 102 105 108 111 114 117 120 123 126 129 132 135 138 141 144 147 150 153 156 159 162 165 168 171 174 177 180 183 186 189 192 195 198 201 204 207 210 213 216 219 222 225 228 231 234 237 240 243 246 249 252 255 258 261 264 267 270 273 276 279 282 285 288 291 294 297 300 303 306 309 312 315 318 321 324 327 330 333 336 339 342 345 348 351 354 357 360 363 366 369 372 375 378 381 384 387 390 393 396 399 402 405 408 411 414 417 420 423 426 429 432 435 438 441 444 447 450 453 456 459 462 465 468 471 474 477 480 483 486 489 492 495 498 501 504 507 510 513 516 519 522 525 528 531 534 537 540 543 546 549 552 555 558 561 564 567 570 573 576 579 582 585 588 591 594 597 600 603 606 609 612 615 618 621 624 627 630 633 636 639 642 645 648 651 654 657 660 663 666 669 672 675 678 681 684 687 690 693 696 699 702 705 708 711 714 717 720 723 726 729 732 735 738 741 744 747 750 753 756 759 762 765 768 771 774 777 780 783 786 789 792 795 798 801 804 807 810 813 816 819 822 825 828 831 834 837 840 843 846 849 852 855 858 861 864 867 870 873 876 879 882 885 888 891 894 897 900 903 906 909 912 915 918 921 924 927 930 933 936 939 942 945 948 951 954 957 960 963 966 969 972 975 978 981 984 987 990 993 996 999 1002 1005 1008 1011 1014 </DataArray>
<DataArray  type="UInt8"  Name="types"  format="ascii">5 5 5 5 5 5 5 5 5 5 5 5 5 5 5 5 5 5 5 5 5 5 5 5 5 5 5 5 5 5 5 5 5 5 5 5 5 5 5 5 5 5 5 5 5 5 5 5 5 5 5 5 5 5 5 5 5 5 5 5 5 5 5 5 5 5 5 5 5 5 5 5 5 5 5 5 5 5 5 5 5 5 5 5 5 5 5 5 5 5 5 5 5 5 5 5 5 5 5 5 5 5 5 5 5 5 5 5 5 5 5 5 5 5 5 5 5 5 5 5 5 5 5 5 5 5 5 5 5 5 5 5 5 5 5 5 5 5 5 5 5 5 5 5 5 5 5 5 5 5 5 5 5 5 5 5 5 5 5 5 5 5 5 5 5 5 5 5 5 5 5 5 5 5 5 5 5 5 5 5 5 5 5 5 5 5 5 5 5 5 5 5 5 5 5 5 5 5 5 5 5 5 5 5 5 5 5 5 5 5 5 5 5 5 5 5 5 5 5 5 5 5 5 5 5 5 5 5 5 5 5 5 5 5 5 5 5 5 5 5 5 5 5 5 5 5 5 5 5 5 5 5 5 5 5 5 5 5 5 5 5 5 5 5 5 5 5 5 5 5 5 5 5 5 5 5 5 5 5 5 5 5 5 5 5 5 5 5 5 5 5 5 5 5 5 5 5 5 5 5 5 5 5 5 5 5 5 5 5 5 5 5 5 5 5 5 5 5 5 5 5 5 5 5 5 5 5 5 5 5 5 5 5 5 5 5 5 5 </DataArray>
</Cells>
<PointData  Vectors="f_43-1"> 
<DataArray  type="Float64"  Name="f_43-1"  NumberOfComponents="3" format="ascii">-2.9985927216844282e-06 5.8879479010658932e-06 0.0000000000000000e+00  1.4939769850927013e-07 1.4317454628626392e-05 0.0000000000000000e+00  -1.1575348803775583e-05 1.7315312781617483e-05 0.0000000000000000e+00  -7.7954420335344933e-06 2.9830184028521897e-05 0.0000000000000000e+00  2.0571214923385250e-06 4.1941755202235919e-06 0.0000000000000000e+00  8.2797396205022065e-06 8.6723237456248596e-06 0.0000000000000000e+00  0.0000000000000000e+00 0.0000000000000000e+00 0.0000000000000000e+00  0.0000000000000000e+00 0.0000000000000000e+00 0.0000000000000000e+00  -2.5019596024024450e-06 2.5355899762729161e-06 0.0000000000000000e+00  -1.9664901383179590e-05 4.9983785884083760e-05 0.0000000000000000e+00  6.2086187112973572e-07 4.7337974773575182e-05 0.0000000000000000e+00  -1.1868862746002210e-05 6.9422121197980011e-05 0.0000000000000000e+00  1.2016148930051519e-05 2.0898979850274593e-05 0.0000000000000000e+00  -3.3505658105121422e-05 4.4824665577052602e-05 0.0000000000000000e+00  -4.1199297285640891e-05 6.5400487934072368e-05 0.0000000000000000e+00  2.3430189602430288e-05 1.1120101893316631e-04 0.0000000000000000e+00  2.1030228473231071e-05 8.2984034434550606e-05 0.0000000000000000e+00  -5.1564469344750922e-07 8.7928260326039902e-05 0.0000000000000000e+00  -8.1617838787681535e-06 8.4028238588000541e-06 0.0000000000000000e+00  0.0000000000000000e+00 0.0000000000000000e+00 0.0000000000000000e+00  3.2670217517905745e-07 3.0428303375305555e-07 0.0000000000000000e+00  -2.0027004551360316e-05 3.2759754177668012e-05 0.0000000000000000e+00  4.3596470612898251e-06 2.8556278697793717e-05 0.0000000000000000e+00  5.4135610308536445e-06 6.8519758155053263e-05 0.0000000000000000e+00  3.9563514611158097e-06 1.4520695751501015e-06 0.0000000000000000e+00  1.0674740638614575e-06 -2.1213353243753263e-07 0.0000000000000000e+00  -3.0262686352229255e-05 7.3170738314273941e-05 0.0000000000000000e+00  -8.5958209636802241e-06 8.4145711872703548e-06 0.0000000000000000e+00  -2.5715391266686594e-06 3.2197670069264093e-06 0.0000000000000000e+00  -1.6947524230589543e-05 1.6305996772489889e-05 0.0000000000000000e+00  -2.5387663861338995e-05 2.8371774452984893e-05 0.0000000000000000e+00  1.8333375767695340e-05 5.8341315666835122e-05 0.0000000000000000e+00  1.5332899236583916e-05 3.7558970891385871e-05 0.0000000000000000e+00  -4.8458167308636132e-05 8.9821916498159475e-05 0.0000000000000000e+00  0.0000000000000000e+00 0.0000000000000000e+00 0.0000000000000000e+00  0.0000000000000000e+00 0.0000000000000000e+00 0.0000000000000000e+00  1.4024143828070889e-05 2.3323709509976814e-04 0.0000000000000000e+00  9.7950806884018950e-06 1.5744150036361220e-04 0.0000000000000000e+00  9.6382217123051888e-06 1.7541636680345536e-04 0.0000000000000000e+00  4.2012868788011423e-06 6.0125708543842912e-05 0.0000000000000000e+00  3.1135100808933882e-06 4.9916300453766224e-05 0.0000000000000000e+00  1.7169590998611543e-06 2.4267164867947582e-05 0.0000000000000000e+00  2.0563521550933988e-05 3.4160527037766945e-04 0.0000000000000000e+00  1.7413502668058877e-05 2.7255984520359756e-04 0.0000000000000000e+00  1.6033336722837679e-05 2.9341056884911226e-04 0.0000000000000000e+00  2.4641750001435180e-05 4.0555948877685493e-04 0.0000000000000000e+00  2.7544234311145474e-05 4.6545216287710388e-04 0.0000000000000000e+00  2.6761591613947695e-05 4.9925782825581703e-04 0.0000000000000000e+00  9.0260552883322447e-06 1.0186432530316112e-04 0.0000000000000000e+00  6.7965523509361006e-06 7.3309010509025750e-05 0.0000000000000000e+00  7.4482514325377460e-06 9.2985879542553337e-05 0.0000000000000000e+00  1.3120658348923731e-05 2.5504759332636704e-04 0.0000000000000000e+00  9.0339718623870585e-06 1.8647950850867338e-04 0.0000000000000000e+00  5.6295864256719797e-06 1.2851126303189197e-04 0.0000000000000000e+00  1.1922608063685590e-05 2.6590193612997229e-04 0.0000000000000000e+00  5.6732811480857945e-06 6.8949972525313448e-05 0.0000000000000000e+00  -3.1424560104200307e-05 8.5165320315234882e-05 0.0000000000000000e+00  -4.0071860449075770e-05 9.7419807483973617e-05 0.0000000000000000e+00  -3.2588859272467775e-05 6.9354037184044147e-05 0.0000000000000000e+00  1.9569901625546506e-05 3.6738757227998588e-04 0.0000000000000000e+00  9.4312421858531778e-06 2.3948414626006641e-04 0.0000000000000000e+00  1.3383306435992265e-05 7.5227448917653894e-05 0.0000000000000000e+00  1.7077501787577993e-05 9.0250221172648282e-05 0.0000000000000000e+00  1.4248881853275143e-05 6.1919010394064029e-05 0.0000000000000000e+00  2.2866953649756448e-05 4.1953956164621166e-04 0.0000000000000000e+00  -1.5368191545591521e-05 3.7515801680650117e-05 0.0000000000000000e+00  -2.4605212470656848e-05 5.2395315406392487e-05 0.0000000000000000e+00  -1.7582921083362799e-05 3.1001349317017786e-05 0.0000000000000000e+00  -1.3641658923924601e-05 4.8138101187422176e-05 0.0000000000000000e+00  -2.0271812212520689e-05 6.6684819807415056e-05 0.0000000000000000e+00  -1.5065639056890218e-05 4.5594679443146125e-05 0.0000000000000000e+00  -9.2353348430598062e-06 2.6970901016264529e-05 0.0000000000000000e+00  -6.7017704623755699e-06 1.6460908496126566e-05 0.0000000000000000e+00  1.7358714740803271e-05 1.3908177972085948e-04 0.0000000000000000e+00  1.8849903435710982e-05 1.8484305950891493e-04 0.0000000000000000e+00  1.5027675082865321e-05 1.3811556206960577e-04 0.0000000000000000e+00  -5.5488424479989606e-06 1.8784099501154154e-05 0.0000000000000000e+00  -9.6984060172958943e-06 3.6247802794093470e-05 0.0000000000000000e+00  -1.0408059562778400e-05 3.4525369650942667e-05 0.0000000000000000e+00  5.0626745504864223e-06 5.2492591538581774e-05 0.0000000000000000e+00  6.8275369739689147e-06 6.5182875919226718e-05 0.0000000000000000e+00  4.9424775092026816e-06 4.5503438305859673e-05 0.0000000000000000e+00  6.6669856852454027e-06 3.3163675318616567e-05 0.0000000000000000e+00  1.0801275303869742e-05 4.5118980254731083e-05 0.0000000000000000e+00  7.9829546274121818e-06 2.5212875558719146e-05 0.0000000000000000e+00  -1.3173075632523579e-05 5.3235652201759546e-05 0.0000000000000000e+00  -1.8740844677542690e-05 7.0486029219376473e-05 0.0000000000000000e+00  3.9590273088998159e-06 2.4849987989992693e-05 0.0000000000000000e+00  2.9097045047593677e-06 1.4351255592772797e-05 0.0000000000000000e+00  -6.2575186559068955e-06 2.3637779006688601e-05 0.0000000000000000e+00  9.1557765586612299e-06 8.8686518322805315e-05 0.0000000000000000e+00  -2.2620057457288751e-05 6.2941730009137225e-05 0.0000000000000000e+00  0.0000000000000000e+00 0.0000000000000000e+00 0.0000000000000000e+00  1.2187674607337776e-05 1.8129063235921690e-04 0.0000000000000000e+00  2.5109220955800683e-05 3.1361148795477613e-04 0.0000000000000000e+00  2.5256276680659381e-05 3.6431683104897286e-04 0.0000000000000000e+00  2.2560021600330751e-05 3.0210584942178898e-04 0.0000000000000000e+00  9.9431105187186676e-06 1.3419129367665613e-04 0.0000000000000000e+00  1.3815693647375785e-05 1.8411079042333464e-04 0.0000000000000000e+00  1.3686267256570121e-05 1.4386984547829548e-04 0.0000000000000000e+00  1.1627771187894538e-05 1.3843410555337268e-04 0.0000000000000000e+00  1.5497437260983136e-05 1.8359852205410927e-04 0.0000000000000000e+00  6.6953560792055418e-06 4.5391072867808744e-05 0.0000000000000000e+00  0.0000000000000000e+00 0.0000000000000000e+00 0.0000000000000000e+00  -1.0081820275653473e-05 1.9546361901031812e-05 0.0000000000000000e+00  0.0000000000000000e+00 0.0000000000000000e+00 0.0000000000000000e+00  4.4945391231568761e-06 1.5659900757509912e-05 0.0000000000000000e+00  -3.3261146264169584e-05 1.1311347419555472e-04 0.0000000000000000e+00  -2.6609632932909106e-05 8.5179472427119050e-05 0.0000000000000000e+00  4.6769366840284821e-06 5.3272034398799456e-05 0.0000000000000000e+00  0.0000000000000000e+00 0.0000000000000000e+00 0.0000000000000000e+00  0.0000000000000000e+00 0.0000000000000000e+00 0.0000000000000000e+00  2.2385823146145856e-06 1.6503397849580372e-05 0.0000000000000000e+00  5.2830478473047215e-06 1.0318142770818071e-04 0.0000000000000000e+00  6.6359548005311176e-06 9.0010601874743174e-05 0.0000000000000000e+00  4.3485473507625321e-06 5.6461555189741410e-05 0.0000000000000000e+00  0.0000000000000000e+00 0.0000000000000000e+00 0.0000000000000000e+00  0.0000000000000000e+00 0.0000000000000000e+00 0.0000000000000000e+00  -4.3063909241920190e-05 8.7642994636517068e-05 0.0000000000000000e+00  -3.6349408378248502e-05 6.4442003052448923e-05 0.0000000000000000e+00  -6.1232739859234297e-06 9.3948442584711304e-06 0.0000000000000000e+00  2.0549248761015729e-05 1.7643174265301103e-04 0.0000000000000000e+00  2.6799522888169255e-06 5.6533862695344295e-06 0.0000000000000000e+00  0.0000000000000000e+00 0.0000000000000000e+00 0.0000000000000000e+00  1.1001035210732881e-05 1.1501550503637800e-04 0.0000000000000000e+00  1.8705165825247584e-05 8.1312969813513727e-05 0.0000000000000000e+00  1.6123631735716834e-05 5.7509592766742342e-05 0.0000000000000000e+00  9.6895813649015066e-06 5.4036269904094953e-05 0.0000000000000000e+00  1.5520000835256513e-05 1.0442620866186271e-04 0.0000000000000000e+00  6.5192035586264857e-06 9.9642768097660459e-05 0.0000000000000000e+00  1.7160406101036417e-05 3.6411285390500420e-04 0.0000000000000000e+00  -7.5955477955036833e-06 3.1164663301681418e-05 0.0000000000000000e+00  6.3406475661307106e-06 1.0874703395825260e-04 0.0000000000000000e+00  0.0000000000000000e+00 0.0000000000000000e+00 0.0000000000000000e+00  -3.4561038799260400e-06 1.3948537864646892e-05 0.0000000000000000e+00  0.0000000000000000e+00 0.0000000000000000e+00 0.0000000000000000e+00  1.0597372340150701e-05 8.8023078614247444e-05 0.0000000000000000e+00  9.4455200112917193e-06 6.6757325676718840e-05 0.0000000000000000e+00  1.2013027498929891e-05 8.3554359503005795e-05 0.0000000000000000e+00  -2.5666839767989564e-05 9.5054916356790607e-05 0.0000000000000000e+00  2.4626647278080270e-05 4.8691628734108230e-04 0.0000000000000000e+00  8.7475460860593382e-06 1.2896332077074477e-04 0.0000000000000000e+00  2.1581741195764655e-05 4.3927360145557838e-04 0.0000000000000000e+00  2.1987827197071265e-05 2.5865110915808197e-04 0.0000000000000000e+00  2.4499510140398034e-05 2.6259377209426747e-04 0.0000000000000000e+00  1.9429571327321197e-05 1.4762426184695870e-04 0.0000000000000000e+00  2.2969424045512442e-05 3.4593742495963025e-04 0.0000000000000000e+00  2.7383377685377871e-05 2.7925543959435035e-04 0.0000000000000000e+00  2.7340681135575872e-05 3.1858170318658363e-04 0.0000000000000000e+00  1.4988097205264325e-05 3.6723024907231341e-04 0.0000000000000000e+00  1.7280882972591487e-06 1.4684566725153838e-05 0.0000000000000000e+00  2.0521098763645759e-05 1.1149245008304421e-04 0.0000000000000000e+00  0.0000000000000000e+00 0.0000000000000000e+00 0.0000000000000000e+00  1.3672942685126989e-05 1.0940643417277147e-04 0.0000000000000000e+00  5.4384079353790396e-06 4.3865959966674695e-05 0.0000000000000000e+00  7.8081396741219071e-06 6.4632215524178881e-05 0.0000000000000000e+00  0.0000000000000000e+00 0.0000000000000000e+00 0.0000000000000000e+00  -4.1372243249210201e-06 1.1896805710728990e-05 0.0000000000000000e+00  1.7528809554358078e-06 1.0686289812014557e-05 0.0000000000000000e+00  1.8679128331620391e-05 2.1641423208369913e-04 0.0000000000000000e+00  1.7346567422929365e-05 2.3447509713205394e-04 0.0000000000000000e+00  1.6362145949612022e-05 1.7153597000259745e-04 0.0000000000000000e+00  0.0000000000000000e+00 0.0000000000000000e+00 0.0000000000000000e+00  -2.9561131724222259e-06 1.1009417114755736e-05 0.0000000000000000e+00  3.4632573561128869e-06 2.8726202581134202e-05 0.0000000000000000e+00  0.0000000000000000e+00 0.0000000000000000e+00 0.0000000000000000e+00  4.2412573663340512e-06 5.1290861993078680e-05 0.0000000000000000e+00  9.4490321081394560e-06 1.1631139327471395e-04 0.0000000000000000e+00  2.7676982962409094e-05 3.7392789453824434e-04 0.0000000000000000e+00  2.3180021212361889e-05 2.1580634166061283e-04 0.0000000000000000e+00  2.5294832706080639e-05 2.0931711877178271e-04 0.0000000000000000e+00  2.2971066311179892e-05 1.8444827017582001e-04 0.0000000000000000e+00  2.5637085797254123e-05 2.4222930995737357e-04 0.0000000000000000e+00  2.9914760074787589e-05 5.5049869478374124e-04 0.0000000000000000e+00  2.9965675935435023e-05 4.9611299298634956e-04 0.0000000000000000e+00  2.7778407034924311e-05 2.4087983415745678e-04 0.0000000000000000e+00  2.9418305928696986e-05 2.7891336958068961e-04 0.0000000000000000e+00  2.1180207350195018e-05 2.1903388731644744e-04 0.0000000000000000e+00  3.3378342201789909e-06 5.9052043476912259e-05 0.0000000000000000e+00  6.2690491931036214e-06 5.4913577905075825e-05 0.0000000000000000e+00  1.2170512418227904e-05 1.1357831832359538e-04 0.0000000000000000e+00  2.1370962838709451e-05 1.5031610930299328e-04 0.0000000000000000e+00  2.4647888147785249e-05 1.7169210107548883e-04 0.0000000000000000e+00  2.3058923348223922e-05 1.3784097700695041e-04 0.0000000000000000e+00  2.9611707496560037e-05 3.6354139963897436e-04 0.0000000000000000e+00  2.9919850289709694e-05 3.2066965584132470e-04 0.0000000000000000e+00  -2.9045422334834108e-05 4.8889594742526121e-05 0.0000000000000000e+00  1.2970051323894673e-05 4.1591697291574275e-05 0.0000000000000000e+00  -4.8696556339583400e-05 1.1821050772843050e-04 0.0000000000000000e+00  2.5575812117642627e-05 1.4273195472728733e-04 0.0000000000000000e+00  4.2791598547729344e-06 3.1381619303164411e-05 0.0000000000000000e+00  2.7336939558986003e-05 4.2326425661773901e-04 0.0000000000000000e+00  1.8637300140398379e-05 1.2388629567730596e-04 0.0000000000000000e+00  2.0059775144797218e-05 2.5976135926242505e-04 0.0000000000000000e+00  2.0313962111811912e-05 2.9279145762788506e-04 0.0000000000000000e+00  -2.2795278308305185e-05 3.5573288525001687e-05 0.0000000000000000e+00  1.0445296951470140e-05 2.8660651933470939e-05 0.0000000000000000e+00  -1.3269263089333040e-05 1.8515441935856879e-05 0.0000000000000000e+00  6.1786589752251792e-06 1.2430877079513792e-05 0.0000000000000000e+00  1.5202631932804341e-05 2.2496454144295896e-04 0.0000000000000000e+00  </DataArray> 
</PointData> 
</Piece>
</UnstructuredGrid>
</VTKFile>