<?xml version="1.0"?>
<VTKFile type="UnstructuredGrid"  version="0.1"  >
<UnstructuredGrid>
<Piece  NumberOfPoints="202" NumberOfCells="338">
<Points>
<DataArray  type="Float64"  NumberOfComponents="3"  format="ascii">1.835188936345112 0.2050000000000699 0  1.838465412967181 0.2953145553852501 0  1.915883512473161 0.2050000000000692 0  1.833166318986108 0.1007828475280248 0  2.383594446803656 0.41 0  2.271253957291315 0.41 0  2.346386298105263 0.3062476289039515 0  0.6244559818022579 0.1024805481876779 0  0.6331542554485198 0.1311064488920115 0  0.604876951083344 0.1323679928240978 0  0.5950070799606315 0.1111116928105405 0  0.7179098792074922 0.09515556231434774 0  0.6930564374308674 0.1341308449452096 0  0.6808979566904864 0.09264351137968369 0  1.943162250261133 0.2848182236928814 0  1.943162250261127 0.1251817763071746 0  2.244824738199097 0.3091885999356265 0  1.317087908068179 0.2834507950760127 0  1.416789257258389 0.3075294577736497 0  1.357724299039236 0.2303555143487852 0  2.383594446803425 0 0  2.301748441448983 0.1032848369023014 0  2.415100580332905 0.08367007402675902 0  0.883612004374276 0.2044999257790265 0  0.941405262964606 0.2275541950732263 0  0.8724873572796065 0.2505182730032114 0  0.6580228992389956 0.1177787934340178 0  1.674965418778818 0.41 0  1.58737143976041 0.41 0  1.617304647871871 0.3102553946317155 0  1.587371439758838 0 0  1.674965418777374 0 0  1.627799041349754 0.08170835291169204 0  1.122434100544716 0.41 0  1.068894913355815 0.339699543595371 0  1.154144739340952 0.3428674566149401 0  0.9084404882614506 0.2892191224003848 0  1.215451113850732 0.2103314603357224 0  1.249863529963017 0.2672258935273379 0  1.176331347569866 0.2754551993599315 0  0.7101078070491313 0.04593780015520291 0  0.7273492824638629 0.1308306999820452 0  2.01253088870001 0.2050000000000507 0  0.6699818017210338 0.05718888729500279 0  0.9882218810956305 0.41 0  0.9246101326886647 0.41 0  0.9513232956593279 0.344238796639219 0  1.419591277297145 0.2050000000000071 0  0.8632198139519631 0.41 0  0.882513772872486 0.3520608410452225 0  0.8202234869765325 0.364591028094237 0  1.421253448505726 0.41 0  1.355827918100823 0.3414955155607449 0  1.421253448503939 0 0  1.418271536314166 0.09353562972960013 0  1.355827918100725 0.06850448443910542 0  0.7991030424147842 0.1996369747921017 0  0.755404159289092 0.1590232243285952 0  0.7509674852354215 0.2077605643765068 0  0.8502354418587501 0.1560244879407868 0  0.9215858179635137 0.1737964996919513 0  0.9080221499231149 0.1220333110997775 0  1.122434100542598 0 0  1.070453094842314 0.06960241275844714 0  1.154904552424504 0.06969164993518225 0  1.017753695734191 0.3624508760213758 0  2.271253957290865 0 0  0.8363367911675036 0.3257327955680793 0  1.05413544556068 0.41 0  2.221794121152559 0.193316850609006 0  2.14411344490712 0.1276195594235362 0  2.20472152769965 0.0713281875562741 0  0.6321311710823254 0.06153785161297727 0  0.595034110037278 0.08371649311769892 0  1.002160515162412 0.1007971030886586 0  1.051646085559005 0.1501053523947661 0  2.162836591190598 0.41 0  2.147307993563104 0.2912592059815138 0  0.7970763259525799 0.1414049767778835 0  0.8757744372027163 0.0680967899541615 0  0.9457932773848412 0.0667989600995588 0  1.054135445558498 0 0  2.038256300678318 0.30845338105422 0  2.047027225616214 0.1093313109621388 0  0.7467958595648856 0 0  0.8039733463919316 0 0  0.7693776708684824 0.05639711714283061 0  0.9246101326867038 0 0  0.9882218810934433 0 0  1.005346589798493 0.3067901807747939 0  1.048577150438126 0.2582185237349715 0  1.481410117014457 0.06937107043222147 0  1.48141011701467 0.3406289295679558 0  1.112767688411364 0.1251261100534626 0  1.171970583870903 0.1546087622866204 0  1.524155460997452 0.2819410593007779 0  1.564450317521975 0.2271796767815198 0  1.465985145565885 0.2641043271703594 0  1.342519516048286 0.41 0  1.266535089881505 0.41 0  1.274599158297837 0.3398495556128484 0  1.266535089879536 0 0  1.342519516046404 0 0  1.279016580461126 0.07083697001675755 0  0.8625643833134949 0.2947679371372982 0  0.5691769360607744 0.103623921999164 0  0.5817033662356486 0.1258684224449203 0  1.21281999103096 0.3139909211204517 0  1.019068245937061 0.0469337202247656 0  2.108400983319523 0.2055533675589543 0  0.9665635209117881 0.1540989494284837 0  1.008472627814504 0.204999999999892 0  1.111528583326901 0.2818863422907276 0  2.373655112860451 0.1537499999996177 0  1.628719644697639 0.2049999999998413 0  1.211433695886656 0.1017136889209831 0  0.8280582783289157 0.04600943632764167 0  1.701137648393037 0.3376494258761434 0  1.700761363836473 0.07263158433296307 0  0.763519512252238 0.1106765968361548 0  2.102498890674862 0.3526963313409883 0  1.146963556870385 0.2220662070926035 0  1.313454781190754 0.1289288827375083 0  1.297747271073664 0.2033748759239161 0  1.375324131717186 0.1546989106163036 0  0.5869673343216626 0 0  0.5932743238853959 0.04945528001359441 0  0.5584639495217296 0.03508113340585634 0  0.7236859362722395 0.2517828338101294 0  0.7667165827043843 0.2524551100397078 0  1.084668006184735 0.2128250251286081 0  0.814691562998009 0.09619193426127341 0  1.545933585256563 0.3495591173405724 0  0.7613343746328384 0.3026779105476945 0  0.8174223541212756 0.2698453306575623 0  0.7176052736190859 0.2162836958912044 0  1.675302090383742 0.2650203692236395 0  1.552569533868087 0.0624528013784801 0  0.7959218455617475 0.3268864684847159 0  1.193204177143353 0.41 0  1.193204177141305 0 0  0.6649882407551387 0.02261378243973851 0  1.859776908881246 0.41 0  1.77165877836765 0.3410140663813219 0  1.859776908880082 0 0  1.771658778367727 0.06898593361867472 0  1.765729001826854 0.41 0  1.765729001825544 0 0  1.518790312518014 0.1283243218597927 0  1.503227144622031 0.2021724267143327 0  1.582623387495486 0.1516962052714668 0  0.619281841121555 0.02915265998465505 0  2.419800870255347 0.3337695350602363 0  1.118750868833027 0.1743068070907049 0  0.9108122465318981 0.04113381345596949 0  0.953518183350995 0.1113177413147439 0  0.7293997039068749 0.1878315768275717 0  0.7014764931779993 0.1925000000000107 0  0.685561679424891 0.2295161340218305 0  0.860027688655414 0.1096039208573359 0  0.8632198139502143 0 0  0.7294932489647475 0.2840789881590486 0  1.255220929810424 0.1520691346915538 0  1.502836389106271 0 0  1.502836389107956 0.41 0  1.221368790720609 0.3632125781021275 0  1.221874249400422 0.04798078752710374 0  0.8039733463934788 0.41 0  0.9607107278835494 0.2834185756442621 0  1.731954290521287 0.2842886317693051 0  1.779077369991058 0.2291039503226278 0  0.6527022231295108 0.08569477788831682 0  0.6916151138468254 0 0  0.8438935925208596 0.2159584135336446 0  2.317206511801082 0.2150857089256538 0  0.5666194772443838 0.07265723178580256 0  2.5 0 0  1.781967815577297 0.1551145542927359 0  2.5 0.2049999999994743 0  2.5 0.3074999999997183 0  2.416929161926448 0.2327464213792422 0  2.5 0.1024999999997612 0  2.5 0.41 0  1.909407874218324 0.3475920460897405 0  1.898307784123137 0.0640781879350478 0  0.7666101362390253 0.3578469139891653 0  2.058205329870775 0.41 0  1.957227977488067 0.41 0  1.976157046732302 0.3420030364334853 0  1.957227977487062 0 0  2.058205329869943 0 0  1.976157046732181 0.06799696356641864 0  1.455141435660884 0.1456544069830235 0  0.9950305598379717 0.2553450661633512 0  1.728567729514045 0.1282404601140156 0  1.712479779067637 0.2028183087747138 0  0.6383613676634521 0 0  2.116985070695456 0.06169297422380063 0  2.162836591189951 0 0  0.7206274800156242 0.161583396443773 0  1.665417171861409 0.1438806335169778 0  2.443165304650843 0.1549388660538532 0  </DataArray>
</Points>
<Cells>
<DataArray  type="UInt32"  Name="connectivity"  format="ascii">0 1 2  0 3 2  4 5 6  7 8 9  7 10 9  11 12 13  14 1 2  15 3 2  5 6 16  17 18 19  20 21 22  23 24 25  12 26 13  27 28 29  30 31 32  33 34 35  36 24 25  37 38 39  11 40 13  11 12 41  42 14 2  42 15 2  43 40 13  44 45 46  47 18 19  48 49 50  51 18 52  53 54 55  56 57 58  23 59 60  61 59 60  62 63 64  44 46 65  66 20 21  67 49 50  33 68 34  69 70 71  7 72 73  74 63 75  76 77 16  17 18 52  56 57 78  36 46 49  61 79 80  81 62 63  42 14 82  42 15 83  84 85 86  87 88 80  89 34 90  53 54 91  51 18 92  93 64 94  93 63 75  95 29 96  47 18 97  98 99 100  101 102 103  36 49 104  69 21 71  105 10 106  11 86 40  98 100 52  102 103 55  107 38 39  88 80 108  42 82 109  42 83 109  74 110 75  111 110 75  112 34 90  113 21 22  114 29 96  115 64 94  85 86 116  111 24 110  77 82 109  70 83 109  27 29 117  31 32 118  11 86 119  76 77 120  37 121 39  69 77 109  69 70 109  122 123 124  125 126 127  112 34 35  56 59 78  89 46 65  128 58 129  111 130 90  131 86 116  95 29 132  133 134 129  128 58 135  111 130 75  114 29 136  123 19 124  7 10 73  93 63 64  56 134 129  5 76 16  28 29 132  30 32 137  24 110 60  51 98 52  102 53 55  133 134 138  112 130 90  74 80 108  69 77 16  105 10 73  139 33 35  62 140 64  126 72 73  7 26 8  43 40 141  142 1 143  144 3 145  84 86 40  112 130 121  142 146 143  147 144 145  67 134 138  148 149 150  131 86 119  125 126 151  131 79 116  4 6 152  56 58 129  130 75 153  79 80 154  45 46 49  93 75 153  149 96 150  61 80 155  57 58 156  157 158 135  131 79 159  87 80 154  160 79 116  128 129 161  131 59 78  107 100 38  115 103 162  53 163 91  164 51 92  139 35 165  140 64 166  48 167 50  115 94 162  37 94 162  36 46 168  169 1 170  67 49 104  128 158 135  7 26 171  172 84 40  146 27 117  31 147 118  122 55 124  17 100 38  122 103 162  56 134 173  56 59 173  6 16 174  72 151 141  69 16 174  172 40 141  160 79 154  0 1 170  89 46 168  61 59 159  126 127 175  176 20 22  67 134 104  45 48 49  54 55 124  32 137 150  148 137 150  23 59 173  131 59 159  37 121 94  43 72 141  37 123 162  37 123 38  0 3 177  169 1 143  178 179 180  57 119 41  61 79 159  17 100 52  122 103 55  176 181 22  179 180 152  11 119 41  146 117 143  147 118 145  115 64 166  107 35 165  23 24 60  182 4 152  14 1 183  15 3 184  17 123 38  122 123 162  85 160 116  133 129 161  167 185 50  68 34 65  74 80 155  89 34 65  186 187 188  189 190 191  186 82 188  190 83 191  17 123 19  74 63 108  182 179 152  81 63 108  36 24 168  113 21 174  18 92 97  54 91 192  142 1 183  144 3 184  69 21 174  121 94 153  163 30 137  28 164 132  95 92 97  148 91 192  160 87 154  111 24 193  26 13 171  68 44 65  194 195 177  112 35 39  88 81 108  54 124 192  47 124 192  195 170 177  61 110 60  74 110 155  125 196 151  61 110 155  107 35 39  77 82 120  70 83 197  198 66 71  187 142 183  144 189 184  47 19 124  164 92 132  163 91 137  196 172 141  14 82 188  15 83 191  99 139 165  140 101 166  57 119 78  89 90 193  131 119 78  7 72 171  47 149 97  47 149 192  66 21 71  105 73 175  111 90 193  95 149 97  148 149 192  76 186 120  190 198 197  133 185 138  12 199 41  186 82 120  190 83 197  95 149 96  57 199 41  157 135 156  57 199 156  10 9 106  99 100 165  101 103 166  6 180 152  134 25 173  126 73 175  130 121 153  95 92 132  148 91 137  198 71 197  29 117 136  32 118 200  157 199 156  24 168 193  126 72 151  115 103 166  107 100 165  112 121 39  181 178 201  32 150 200  114 150 200  70 71 197  169 117 136  194 118 200  194 145 177  114 195 200  114 195 136  114 96 150  43 72 171  134 25 104  58 135 156  3 145 177  93 94 153  194 195 200  169 195 136  43 13 171  169 117 143  194 118 145  196 151 141  89 168 193  187 183 188  189 184 191  113 180 174  169 195 170  6 180 174  0 170 177  36 25 104  185 50 138  181 22 201  14 183 188  15 184 191  178 180 201  23 25 173  113 22 201  113 180 201  67 50 138  </DataArray>
<DataArray  type="UInt32"  Name="offsets"  format="ascii">3 6 9 12 15 18 21 24 27 30 33 36 39 42 45 48 51 54 57 60 63 66 69 72 75 78 81 84 87 90 93 96 99 102 105 108 111 114 117 120 123 126 129 132 135 138 141 144 147 150 153 156 159 162 165 168 171 174 177 180 183 186 189 192 195 198 201 204 207 210 213 216 219 222 225 228 231 234 237 240 243 246 249 252 255 258 261 264 267 270 273 276 279 282 285 288 291 294 297 300 303 306 309 312 315 318 321 324 327 330 333 336 339 342 345 348 351 354 357 360 363 366 369 372 375 378 381 384 387 390 393 396 399 402 405 408 411 414 417 420 423 426 429 432 435 438 441 444 447 450 453 456 459 462 465 468 471 474 477 480 483 486 489 492 495 498 501 504 507 510 513 516 519 522 525 528 531 534 537 540 543 546 549 552 555 558 561 564 567 570 573 576 579 582 585 588 591 594 597 600 603 606 609 612 615 618 621 624 627 630 633 636 639 642 645 648 651 654 657 660 663 666 669 672 675 678 681 684 687 690 693 696 699 702 705 708 711 714 717 720 723 726 729 732 735 738 741 744 747 750 753 756 759 762 765 768 771 774 777 780 783 786 789 792 795 798 801 804 807 810 813 816 819 822 825 828 831 834 837 840 843 846 849 852 855 858 861 864 867 870 873 876 879 882 885 888 891 894 897 900 903 906 909 912 915 918 921 924 927 930 933 936 939 942 945 948 951 954 957 960 963 966 969 972 975 978 981 984 987 990 993 996 999 1002 1005 1008 1011 1014 </DataArray>
<DataArray  type="UInt8"  Name="types"  format="ascii">5 5 5 5 5 5 5 5 5 5 5 5 5 5 5 5 5 5 5 5 5 5 5 5 5 5 5 5 5 5 5 5 5 5 5 5 5 5 5 5 5 5 5 5 5 5 5 5 5 5 5 5 5 5 5 5 5 5 5 5 5 5 5 5 5 5 5 5 5 5 5 5 5 5 5 5 5 5 5 5 5 5 5 5 5 5 5 5 5 5 5 5 5 5 5 5 5 5 5 5 5 5 5 5 5 5 5 5 5 5 5 5 5 5 5 5 5 5 5 5 5 5 5 5 5 5 5 5 5 5 5 5 5 5 5 5 5 5 5 5 5 5 5 5 5 5 5 5 5 5 5 5 5 5 5 5 5 5 5 5 5 5 5 5 5 5 5 5 5 5 5 5 5 5 5 5 5 5 5 5 5 5 5 5 5 5 5 5 5 5 5 5 5 5 5 5 5 5 5 5 5 5 5 5 5 5 5 5 5 5 5 5 5 5 5 5 5 5 5 5 5 5 5 5 5 5 5 5 5 5 5 5 5 5 5 5 5 5 5 5 5 5 5 5 5 5 5 5 5 5 5 5 5 5 5 5 5 5 5 5 5 5 5 5 5 5 5 5 5 5 5 5 5 5 5 5 5 5 5 5 5 5 5 5 5 5 5 5 5 5 5 5 5 5 5 5 5 5 5 5 5 5 5 5 5 5 5 5 5 5 5 5 5 5 5 5 5 5 5 5 5 5 5 5 5 5 5 5 5 5 5 5 5 5 5 5 5 5 </DataArray>
</Cells>
<PointData  Vectors="f_43-1"> 
<DataArray  type="Float64"  Name="f_43-1"  NumberOfComponents="3" format="ascii">-1.4548768655885963e-09 7.6573245947553148e-08 0.0000000000000000e+00  -1.0944768526134643e-09 5.7622367375321562e-08 0.0000000000000000e+00  -7.8633382159061504e-10 4.1826012401695321e-08 0.0000000000000000e+00  -1.0320839169127962e-09 5.4310325314590130e-08 0.0000000000000000e+00  0.0000000000000000e+00 0.0000000000000000e+00 0.0000000000000000e+00  0.0000000000000000e+00 0.0000000000000000e+00 0.0000000000000000e+00  -1.9613440792818027e-11 1.0926644693372495e-09 0.0000000000000000e+00  -5.2053691360282189e-06 3.7452454546978641e-04 0.0000000000000000e+00  -7.1646411558272779e-06 4.6765650345508643e-04 0.0000000000000000e+00  -7.5964924363785493e-06 5.4862682894761549e-04 0.0000000000000000e+00  -5.8402273946082701e-06 4.6070793793470666e-04 0.0000000000000000e+00  -3.4467003582245990e-06 1.9769187425368513e-04 0.0000000000000000e+00  -5.6918782597898088e-06 3.1577959304804391e-04 0.0000000000000000e+00  -3.9669448423425349e-06 2.4648823833403258e-04 0.0000000000000000e+00  -5.2617492297320026e-10 2.8080542291718324e-08 0.0000000000000000e+00  -5.2710543401542696e-10 2.8130547048726629e-08 0.0000000000000000e+00  -4.4720603862923437e-11 2.4703342141147616e-09 0.0000000000000000e+00  -6.0168851451813730e-08 2.9336410523530472e-06 0.0000000000000000e+00  -2.4290355000004048e-08 1.2033636772675411e-06 0.0000000000000000e+00  -5.2597192154213293e-08 2.5854900518789412e-06 0.0000000000000000e+00  0.0000000000000000e+00 0.0000000000000000e+00 0.0000000000000000e+00  -2.8888942624974447e-11 1.6038389152155283e-09 0.0000000000000000e+00  -7.8240185344546396e-12 4.3758556602261209e-10 0.0000000000000000e+00  -1.9486751909137962e-06 8.8908971975112941e-05 0.0000000000000000e+00  -1.2497925066340821e-06 5.6867838706813590e-05 0.0000000000000000e+00  -2.0625044633603400e-06 9.0424916667397940e-05 0.0000000000000000e+00  -5.7407616130856619e-06 3.5895577081548072e-04 0.0000000000000000e+00  0.0000000000000000e+00 0.0000000000000000e+00 0.0000000000000000e+00  0.0000000000000000e+00 0.0000000000000000e+00 0.0000000000000000e+00  -5.2216219024633288e-09 2.6666638188500077e-07 0.0000000000000000e+00  0.0000000000000000e+00 0.0000000000000000e+00 0.0000000000000000e+00  0.0000000000000000e+00 0.0000000000000000e+00 0.0000000000000000e+00  -4.0815726868923695e-09 2.0893157735564701e-07 0.0000000000000000e+00  0.0000000000000000e+00 0.0000000000000000e+00 0.0000000000000000e+00  -2.4988964038972143e-07 1.1469499736602614e-05 0.0000000000000000e+00  -1.2443924701986016e-07 5.8522551537646735e-06 0.0000000000000000e+00  -1.3489576728656273e-06 5.8666629384217639e-05 0.0000000000000000e+00  -1.5697282517157037e-07 7.5518146776688164e-06 0.0000000000000000e+00  -1.0799325675922634e-07 5.2065224920833369e-06 0.0000000000000000e+00  -1.8230671973928552e-07 8.6613734581542115e-06 0.0000000000000000e+00  -1.6845437684373619e-06 1.0392214436359681e-04 0.0000000000000000e+00  -4.5283544397997221e-06 2.4041847246759483e-04 0.0000000000000000e+00  -3.7990876023146901e-10 2.0450331942971863e-08 0.0000000000000000e+00  -2.4336872232110434e-06 1.6361910215280002e-04 0.0000000000000000e+00  0.0000000000000000e+00 0.0000000000000000e+00 0.0000000000000000e+00  0.0000000000000000e+00 0.0000000000000000e+00 0.0000000000000000e+00  -5.9026740560913021e-07 2.5753647506144696e-05 0.0000000000000000e+00  -3.3539167657476639e-08 1.6652785198885148e-06 0.0000000000000000e+00  0.0000000000000000e+00 0.0000000000000000e+00 0.0000000000000000e+00  -9.1148947657811293e-07 3.7932241891663196e-05 0.0000000000000000e+00  -1.2063045004230595e-06 4.7123670662855948e-05 0.0000000000000000e+00  0.0000000000000000e+00 0.0000000000000000e+00 0.0000000000000000e+00  -2.7254127972179720e-08 1.3361361221625517e-06 0.0000000000000000e+00  0.0000000000000000e+00 0.0000000000000000e+00 0.0000000000000000e+00  -2.2241978058375083e-08 1.1060678840927536e-06 0.0000000000000000e+00  -2.7096054708996885e-08 1.3368870446593703e-06 0.0000000000000000e+00  -3.6954823503872700e-06 1.6774619751173372e-04 0.0000000000000000e+00  -4.4769672402178588e-06 2.1945908472075984e-04 0.0000000000000000e+00  -5.4469573805301076e-06 2.4254375634267516e-04 0.0000000000000000e+00  -2.2311448068680371e-06 1.0620832866912682e-04 0.0000000000000000e+00  -1.3920494006559072e-06 6.5103863001846394e-05 0.0000000000000000e+00  -1.2365401632472492e-06 5.9653350348205938e-05 0.0000000000000000e+00  0.0000000000000000e+00 0.0000000000000000e+00 0.0000000000000000e+00  -2.3380452238876150e-07 1.1265038145602225e-05 0.0000000000000000e+00  -1.2478912461435341e-07 6.0289078994322731e-06 0.0000000000000000e+00  -2.5891815424420470e-07 1.1629105932606716e-05 0.0000000000000000e+00  0.0000000000000000e+00 0.0000000000000000e+00 0.0000000000000000e+00  -1.8430853568772193e-06 7.4640965349387603e-05 0.0000000000000000e+00  0.0000000000000000e+00 0.0000000000000000e+00 0.0000000000000000e+00  -7.6743488717366346e-11 4.2292445858876184e-09 0.0000000000000000e+00  -1.1618024139432304e-10 6.3501958067655964e-09 0.0000000000000000e+00  -4.5700003395560738e-11 2.5141555222028988e-09 0.0000000000000000e+00  -2.8201896517847311e-06 2.1218355806233396e-04 0.0000000000000000e+00  -3.9892687347159634e-06 3.3502515836071324e-04 0.0000000000000000e+00  -5.3426416700395940e-07 2.5669722684994412e-05 0.0000000000000000e+00  -4.8995653509801130e-07 2.3274109930601637e-05 0.0000000000000000e+00  0.0000000000000000e+00 0.0000000000000000e+00 0.0000000000000000e+00  -1.0824456233633965e-10 5.9181957116032107e-09 0.0000000000000000e+00  -3.0481137351807281e-06 1.5013587401116243e-04 0.0000000000000000e+00  -9.3504900228493006e-07 4.6883720757675912e-05 0.0000000000000000e+00  -5.6108442112967824e-07 2.7428689215798473e-05 0.0000000000000000e+00  0.0000000000000000e+00 0.0000000000000000e+00 0.0000000000000000e+00  -2.1984778898097922e-10 1.1870430793475894e-08 0.0000000000000000e+00  -2.1787285655281898e-10 1.1776397801874286e-08 0.0000000000000000e+00  0.0000000000000000e+00 0.0000000000000000e+00 0.0000000000000000e+00  0.0000000000000000e+00 0.0000000000000000e+00 0.0000000000000000e+00  -1.5386238020202881e-06 8.5165610148051483e-05 0.0000000000000000e+00  0.0000000000000000e+00 0.0000000000000000e+00 0.0000000000000000e+00  0.0000000000000000e+00 0.0000000000000000e+00 0.0000000000000000e+00  -5.6424683332125481e-07 2.5460475526262589e-05 0.0000000000000000e+00  -5.1660950504468747e-07 2.3898713080753944e-05 0.0000000000000000e+00  -1.0636424143317418e-08 5.3364668845882570e-07 0.0000000000000000e+00  -1.0665751605508491e-08 5.3371428926968526e-07 0.0000000000000000e+00  -2.7655860877912157e-07 1.3253743276532350e-05 0.0000000000000000e+00  -2.0116090420814340e-07 9.6654310655916806e-06 0.0000000000000000e+00  -1.2655540391493399e-08 6.3767223457369703e-07 0.0000000000000000e+00  -1.1072592003043278e-08 5.6140629558163953e-07 0.0000000000000000e+00  -2.1294624052214763e-08 1.0637163684916564e-06 0.0000000000000000e+00  0.0000000000000000e+00 0.0000000000000000e+00 0.0000000000000000e+00  0.0000000000000000e+00 0.0000000000000000e+00 0.0000000000000000e+00  -5.1662089906308890e-08 2.4952546834001605e-06 0.0000000000000000e+00  0.0000000000000000e+00 0.0000000000000000e+00 0.0000000000000000e+00  0.0000000000000000e+00 0.0000000000000000e+00 0.0000000000000000e+00  -4.9877507719512445e-08 2.4377471119920953e-06 0.0000000000000000e+00  -1.8851482449619008e-06 7.9530439756646753e-05 0.0000000000000000e+00  -4.9752789813784479e-06 4.5074797834199388e-04 0.0000000000000000e+00  -6.9420411979439081e-06 5.5630806312499789e-04 0.0000000000000000e+00  -1.0827605516505604e-07 5.1696215494654816e-06 0.0000000000000000e+00  -2.3583212048133431e-07 1.1423799141538148e-05 0.0000000000000000e+00  -1.8325664090077802e-10 9.9772481830668373e-09 0.0000000000000000e+00  -9.3773864613762892e-07 4.4331136125668490e-05 0.0000000000000000e+00  -7.5398062294841211e-07 3.5100189839914472e-05 0.0000000000000000e+00  -2.9009874612571847e-07 1.3574125789297046e-05 0.0000000000000000e+00  -1.9560620382243632e-11 1.0915467909643156e-09 0.0000000000000000e+00  -6.9084825607492936e-09 3.5354480313310009e-07 0.0000000000000000e+00  -1.1303076931723532e-07 5.4770257966718015e-06 0.0000000000000000e+00  -8.8005001968337105e-07 4.5980835874467146e-05 0.0000000000000000e+00  -2.1018718555785541e-09 1.0863009905454732e-07 0.0000000000000000e+00  -2.1161754925695572e-09 1.0941774315118305e-07 0.0000000000000000e+00  -3.0785906267327950e-06 1.6213601870792451e-04 0.0000000000000000e+00  -8.1415168567035519e-11 4.4297395169411175e-09 0.0000000000000000e+00  -2.6208998044828421e-07 1.2451619089511467e-05 0.0000000000000000e+00  -6.2337037580155298e-08 3.0544543772178850e-06 0.0000000000000000e+00  -8.4289317004613305e-08 4.1090482319851477e-06 0.0000000000000000e+00  -4.3402885765207667e-08 2.1433065958431940e-06 0.0000000000000000e+00  0.0000000000000000e+00 0.0000000000000000e+00 0.0000000000000000e+00  -2.1464725758982419e-06 1.9327457952501324e-04 0.0000000000000000e+00  -1.2552449052107122e-06 1.4425428949778454e-04 0.0000000000000000e+00  -6.8808710214878523e-06 2.7439389884955273e-04 0.0000000000000000e+00  -4.7970857147201456e-06 1.9797525112400636e-04 0.0000000000000000e+00  -4.2282644064091366e-07 1.9900568096701848e-05 0.0000000000000000e+00  -1.9424369221699708e-06 9.9392475984514783e-05 0.0000000000000000e+00  -5.7720372958709615e-09 2.9167576122731956e-07 0.0000000000000000e+00  -4.1183601816620237e-06 1.5711257554993925e-04 0.0000000000000000e+00  -3.0345716382985969e-06 1.2683363232501889e-04 0.0000000000000000e+00  -7.2280894875495439e-06 3.1338896260098211e-04 0.0000000000000000e+00  -4.3640240088479031e-09 2.2473400192958164e-07 0.0000000000000000e+00  -5.6518534309050628e-09 2.8634564996376728e-07 0.0000000000000000e+00  -2.5408642362086886e-06 9.8601077377487555e-05 0.0000000000000000e+00  0.0000000000000000e+00 0.0000000000000000e+00 0.0000000000000000e+00  0.0000000000000000e+00 0.0000000000000000e+00 0.0000000000000000e+00  -9.4762308084279589e-07 6.6447536591043540e-05 0.0000000000000000e+00  0.0000000000000000e+00 0.0000000000000000e+00 0.0000000000000000e+00  -1.1800152632487730e-09 6.1583322101003352e-08 0.0000000000000000e+00  0.0000000000000000e+00 0.0000000000000000e+00 0.0000000000000000e+00  -1.1800510311327450e-09 6.1603825671702157e-08 0.0000000000000000e+00  0.0000000000000000e+00 0.0000000000000000e+00 0.0000000000000000e+00  0.0000000000000000e+00 0.0000000000000000e+00 0.0000000000000000e+00  -1.3187870952540452e-08 6.6480324460382542e-07 0.0000000000000000e+00  -1.7834436307638180e-08 8.9645189502166234e-07 0.0000000000000000e+00  -8.9847796295315787e-09 4.5692593462343898e-07 0.0000000000000000e+00  -1.2785218380470854e-06 1.0449964033302306e-04 0.0000000000000000e+00  -6.7566972999326996e-12 3.7797579626960887e-10 0.0000000000000000e+00  -3.1632836120431659e-07 1.5062648263821456e-05 0.0000000000000000e+00  -4.5078561164547758e-07 2.2418687964362373e-05 0.0000000000000000e+00  -8.2696820191048444e-07 3.9790013895964427e-05 0.0000000000000000e+00  -6.1163183127468803e-06 2.8520945053612319e-04 0.0000000000000000e+00  -7.7204054580556432e-06 3.5873527243957779e-04 0.0000000000000000e+00  -9.6658800317449894e-06 3.9642017593890448e-04 0.0000000000000000e+00  -1.5983387458383784e-06 7.8844064838797586e-05 0.0000000000000000e+00  0.0000000000000000e+00 0.0000000000000000e+00 0.0000000000000000e+00  -5.9554284243467909e-06 2.2411928122238094e-04 0.0000000000000000e+00  -1.0657546059308719e-07 5.1766076709592375e-06 0.0000000000000000e+00  0.0000000000000000e+00 0.0000000000000000e+00 0.0000000000000000e+00  0.0000000000000000e+00 0.0000000000000000e+00 0.0000000000000000e+00  -5.3139342752802994e-08 2.5369049602451580e-06 0.0000000000000000e+00  -5.3301371368447246e-08 2.5911804970134417e-06 0.0000000000000000e+00  0.0000000000000000e+00 0.0000000000000000e+00 0.0000000000000000e+00  -9.2128987137991362e-07 4.1145542622186658e-05 0.0000000000000000e+00  -2.5996399654784083e-09 1.3493547181509824e-07 0.0000000000000000e+00  -2.1828599002593534e-09 1.1403246674768438e-07 0.0000000000000000e+00  -3.9734811974628209e-06 2.6945088861282321e-04 0.0000000000000000e+00  0.0000000000000000e+00 0.0000000000000000e+00 0.0000000000000000e+00  -2.6587893252767739e-06 1.1911354405104539e-04 0.0000000000000000e+00  -3.5407686682214049e-11 1.9682808975603818e-09 0.0000000000000000e+00  -3.0352876039682387e-06 3.0465932034848351e-04 0.0000000000000000e+00  0.0000000000000000e+00 0.0000000000000000e+00 0.0000000000000000e+00  -2.0132790391773248e-09 1.0522704865897924e-07 0.0000000000000000e+00  0.0000000000000000e+00 0.0000000000000000e+00 0.0000000000000000e+00  0.0000000000000000e+00 0.0000000000000000e+00 0.0000000000000000e+00  -1.2488019300420965e-11 6.9844576131422170e-10 0.0000000000000000e+00  0.0000000000000000e+00 0.0000000000000000e+00 0.0000000000000000e+00  0.0000000000000000e+00 0.0000000000000000e+00 0.0000000000000000e+00  -3.8110358800511424e-10 2.0252707677018243e-08 0.0000000000000000e+00  -4.2327581238931002e-10 2.2467064069405406e-08 0.0000000000000000e+00  -2.1433506482048873e-06 7.8288703632085099e-05 0.0000000000000000e+00  0.0000000000000000e+00 0.0000000000000000e+00 0.0000000000000000e+00  0.0000000000000000e+00 0.0000000000000000e+00 0.0000000000000000e+00  -2.4890021427498758e-10 1.3338840825259613e-08 0.0000000000000000e+00  0.0000000000000000e+00 0.0000000000000000e+00 0.0000000000000000e+00  0.0000000000000000e+00 0.0000000000000000e+00 0.0000000000000000e+00  -2.4875051753339088e-10 1.3331991071374327e-08 0.0000000000000000e+00  -2.3034094466364502e-08 1.1505737653645410e-06 0.0000000000000000e+00  -7.8611362866587321e-07 3.5872407972382071e-05 0.0000000000000000e+00  -2.7031720557353512e-09 1.4028007328543039e-07 0.0000000000000000e+00  -3.6710226010258785e-09 1.9005876183170946e-07 0.0000000000000000e+00  0.0000000000000000e+00 0.0000000000000000e+00 0.0000000000000000e+00  -7.8348868510327023e-11 4.2697435271456876e-09 0.0000000000000000e+00  0.0000000000000000e+00 0.0000000000000000e+00 0.0000000000000000e+00  -5.7880430589612312e-06 2.8922791856758330e-04 0.0000000000000000e+00  -4.6746974080609685e-09 2.4049459089259266e-07 0.0000000000000000e+00  -7.8288520576238233e-12 4.3827233463960830e-10 0.0000000000000000e+00  </DataArray> 
</PointData> 
</Piece>
</UnstructuredGrid>
</VTKFile>