<?xml version="1.0"?>
<VTKFile type="UnstructuredGrid"  version="0.1"  >
<UnstructuredGrid>
<Piece  NumberOfPoints="195" NumberOfCells="337">
<Points>
<DataArray  type="Float64"  NumberOfComponents="3"  format="ascii">0.4917096175621762 0.1999999999998808 0  0.4842413153250809 0.1970915826863873 0  0.4842413153245942 0.2040749161535287 0  0.5066462220363641 0.199999999999908 0  0.4991779197992749 0.1970915826863902 0  0.4991779197988497 0.2040749161535382 0  0.5215828265105155 0.1999999999999228 0  0.5141145242734466 0.1970915826863843 0  0.5141145242731028 0.2040749161535395 0  0.5365194309847112 0.1999999999999436 0  0.5290511287476175 0.1970915826863981 0  0.5290511287473298 0.2040749161535501 0  0.5439877332217911 0.197091582686394 0  0.5439623148931173 0.2040856076781014 0  0.476773013087985 0.1999999999998713 0  0.5327852798661811 0.19 0  0.5253169776290537 0.19 0  0.547721884340339 0.19 0  0.5402535821032429 0.19 0  0.4730388619694271 0.19 0  0.4655705597323621 0.19 0  0.4693047108508938 0.1970915826863783 0  0.5178486753919799 0.19 0  0.5103803731549078 0.19 0  0.4879754664436223 0.19 0  0.4805071642065402 0.19 0  0.502912070917822 0.19 0  0.4954437686807294 0.19 0  0.4917096175615203 0.2056971942287492 0  0.5066462220358396 0.2056971942287649 0  0.5215828265100828 0.2056971942287677 0  0.5365194309843644 0.2056971942287865 0  0.5365194309847112 0.1943028057711659 0  0.5215828265105155 0.1943028057711514 0  0.4767730130879849 0.1943028057711153 0  0.4917096175621761 0.1943028057711214 0  0.5066462220363641 0.1943028057711422 0  0.480507164205851 0.21 0  0.4879754664429498 0.21 0  0.5103803731544119 0.21 0  0.5178486753915261 0.21 0  0.4954437686800938 0.21 0  0.502912070917267 0.21 0  0.5253169776286404 0.21 0  0.5327852798657868 0.21 0  0.5402535821029386 0.21 0  0.4543681063767173 0.1676928600783137 0  0.4456512193123995 0.1563006663224736 0  0.4634554111966759 0.156587601803556 0  0.5019588293971892 0.1448324961346233 0  0.5202014138752529 0.1378594850692911 0  0.5186581766834214 0.1505504706653799 0  0.4991779197992711 0.167693385507626 0  0.4900906149793102 0.1565876018036352 0  0.5082652246192162 0.1565876018036352 0  0.5209814004512184 0.2362962593649592 0  0.5347760817351684 0.2414500964404198 0  0.5183393333239584 0.2464065549333135 0  0.5461387848636305 0.1174764669537213 0  0.5361687701469152 0.1326608756097835 0  0.5197325460646487 0.1214075108099659 0  0.4953767731769588 0.1188694761679334 0  0.506255180108809 0.1312411055441881 0  0.499237761463083 0.2192785032300353 0  0.5439877332217901 0.1676928600783786 0  0.5349004284018322 0.1565876018036672 0  0.5520209547307013 0.1576841814684212 0  0.4552963513014363 0.145444894720247 0  0.4735622322288027 0.1489594066447112 0  0.430606184336534 0.1007106891413896 0  0.4121197549442807 0.08306196356607598 0  0.4341927647953854 0.06945916972568383 0  0.5691769360607744 0.103623921999164 0  0.5817033662356486 0.1258684224449203 0  0.5656709189996393 0.1218263852353965 0  0.4993542269391089 0.2308107468212473 0  0.5064903940750056 0.2246838314870058 0  0.5123638022628456 0.2310955071885417 0  0.5257318662464058 0.1055286630332995 0  0.4474989647342493 0.1297107067022473 0  0.4322147276797816 0.1208036360979848 0  0.4500639844785546 0.1038268107662773 0  0.536567636007916 0.2275987754591341 0  0.5283542774025207 0.2302880001042248 0  0.5455709551586724 0.2324144452751203 0  0.4538259418580106 0.08513891830322172 0  0.5448392573395288 0.1456266733529302 0  0.560873207311089 0.1493935172983297 0  0.4582183089687113 0.05889916916817712 0  0.4771650921173667 0.0345682490428623 0  0.4786311469264966 0.07193451402067624 0  0.5299710643811397 0.2566376774421922 0  0.546982877175164 0.2233942294772845 0  0.5365194309843644 0.2180863504285254 0  0.464700493006123 0.1337957577261608 0  0.4767380076620556 0.1813492122870721 0  0.5216178319364539 0.1813492122870838 0  0.5081447438790341 0.05715290841304708 0  0.4614662289214904 0.1185262515411474 0  0.5265047000024197 0.2223941974774756 0  0.505337249077668 0.1024328896935337 0  0.5286910337265995 0.2154702409242758 0  0.5150278681324471 0.2228450308306156 0  0.5214285426002536 0.2161011329323836 0  0.5536582001352554 0.1343709232030346 0  0.431963199665431 0.1622083790702696 0  0.4308549333301598 0.1502035540486048 0  0.4116738586544235 0.1041859387663523 0  0.4767730130879849 0.1622083790703084 0  0.5504647692515866 0.2417078359721865 0  0.544963993717515 0.2555062458890662 0  0.5443827500055026 0.09366669778791233 0  0.3871533862426518 0.1004535961197204 0  0.4048211958526272 0.1196730942586016 0  0.5084573036363184 0.2395108277223441 0  0.387533158164613 0.1229770158841918 0  0.5390824052225628 0.06744833187951048 0  0.5212239823753633 0.08492404393226735 0  0.5215828265105156 0.1622083790703317 0  0.4910031975930484 0.2171006717137592 0  0.5075668509025225 0.2171084086245455 0  0.4433053055141081 0 0  0.4410855102972552 0.03751680874040594 0  0.4004709881341373 0.156587601801244 0  0.383930166391577 0.149077512173999 0  0.3969581968524311 0.1447077887708589 0  0.5584639495217296 0.03508113340585634 0  0.5666194772443838 0.07265723178580256 0  0.4767730130879849 0.1004582016456482 0  0.5690392421172527 0.1384821647678796 0  0.4895008759286886 0 0  0.5143590539697885 0.2155988592715468 0  0.4777970859082697 0.1375242924454789 0  0.4423561517299195 0.1449296933988149 0  0.4917096175621761 0.1826726487251064 0  0.5066462220363641 0.1826726487251085 0  0.5208355992062484 0.2285465546466679 0  0.5366299525895074 0.1825690825227473 0  0.442117717086971 0.1672874945454806 0  0.477253129614999 0.1229170029909243 0  0.4990943684003321 0.08379643703559929 0  0.4143465137990051 0.05322961011747924 0  0.4693047108508937 0.1834818376483876 0  0.4842366479349569 0.1837683957184343 0  0.4666592720111949 0.1673206601298049 0  0.5141191916635692 0.1837683957184422 0  0.4867628426197099 0.1672556638427207 0  0.5290511287476175 0.1834818376483974 0  0.4870209690086496 0.1445552225959656 0  0.5373680609405097 0 0  0.5869673343216626 0 0  0.5115929969788211 0.1672556638427288 0  0.4688813130644119 0.1761054820336536 0  0.4617258870090093 0.1826555625495994 0  0.5312943323845036 0.1447479119997123 0  0.5294745265341012 0.1761054820336709 0  0.5316967135713353 0.1673421178078786 0  0.4842413153250809 0.1755365127551258 0  0.4923756029794709 0.2245693836696246 0  0.4869999746943883 0.2308048359320609 0  0.5141145242734466 0.1755365127551412 0  0.5562468381785084 0.1675066640297715 0  0.4846260107628763 0.2228898464509046 0  0.4841984187204001 0.2159109988582109 0  0.5312379346123596 0.03921294785544463 0  0.3987229542472677 0 0  0.416528437774832 0.02576952322240761 0  0.454355826198406 0.1783191038782875 0  0.4476321386943704 0.1742462878721009 0  0.4611006434060722 0.1742578426498367 0  0.4200158654557485 0.1549967047228304 0  0.3881774741414789 0.1375237980955535 0  0.4007921484923099 0.1334520017217418 0  0.4767269250530047 0.1713973971258736 0  0.4991779197992725 0.1783172034453956 0  0.4923389098589435 0.1741809711526818 0  0.506016929739597 0.1741809711526895 0  0.4094216635085727 0.1459162970206419 0  0.4171240435965357 0.130709948522703 0  0.5216289307659581 0.1713997813123399 0  0.5666635607831564 0.161267807310367 0  0.5439877332217904 0.1783210023422619 0  0.5371890579013414 0.1744210598886847 0  0.5509385065020694 0.1745004300116409 0  0.510662702819522 0.02256181955995177 0  0.4991779197992735 0.1849089375109228 0  0.5595716197895517 0.176498756977387 0  0.5514474833664602 0.1826065372792922 0  0.5439877332217911 0.1852618121745313 0  0.4096953638692593 0.1593611747926069 0  0.4214619365707062 0.1433505759463181 0  0.4908029823839455 0.1335072113564198 0  0.4315229872852132 0.1375769537565516 0  0.3866266297147894 0.03466711669742863 0  0.4191531770983273 0.1155832460350826 0  </DataArray>
</Points>
<Cells>
<DataArray  type="UInt32"  Name="connectivity"  format="ascii">0 1 2  3 4 5  6 7 8  9 10 11  9 12 13  6 10 11  3 7 8  0 4 5  14 1 2  15 16 10  17 18 12  19 20 21  22 23 7  24 25 1  26 27 4  0 2 28  3 5 29  6 8 30  9 11 31  9 13 31  6 11 30  3 8 29  0 5 28  15 10 32  16 10 33  6 10 33  18 12 32  9 10 32  19 21 34  14 1 34  25 1 34  14 21 34  9 12 32  24 1 35  23 7 36  26 4 36  27 4 35  22 7 33  3 4 36  3 7 36  0 1 35  0 4 35  6 7 33  37 38 2  39 40 8  41 42 5  43 44 11  38 2 28  41 5 28  39 8 29  42 5 29  43 11 30  44 11 31  45 13 31  40 8 30  38 41 28  42 39 29  25 19 34  44 45 31  40 43 30  27 24 35  18 15 32  23 26 36  16 22 33  46 47 48  49 50 51  52 53 54  55 56 57  58 59 60  61 62 60  41 42 63  64 65 66  67 48 68  69 70 71  72 73 74  75 76 77  78 58 60  49 54 51  79 80 81  82 56 83  82 56 84  69 85 71  86 66 87  88 89 90  56 91 57  82 92 93  49 50 62  67 68 94  25 19 95  16 22 96  97 89 90  98 79 81  82 99 93  61 60 100  99 93 101  102 99 103  86 104 87  105 47 106  55 56 83  67 47 48  69 70 107  49 53 54  108 53 68  109 56 110  44 45 93  78 58 111  112 113 107  75 114 77  109 56 84  112 70 107  112 113 115  97 116 117  118 65 51  41 63 119  42 63 120  121 122 89  86 65 66  123 124 125  116 126 127  128 98 81  82 92 84  88 122 71  129 104 87  121 130 89  102 131 103  69 85 81  132 68 94  47 106 133  27 24 134  23 26 135  102 99 136  69 80 81  18 15 137  78 60 100  128 61 100  46 47 138  128 98 139  97 140 117  141 122 71  19 95 142  25 95 143  46 48 144  128 61 139  22 96 145  52 53 146  16 96 147  53 68 148  149 150 126  128 140 100  128 85 81  52 54 151  72 111 127  97 140 90  38 41 119  42 39 120  152 153 142  128 85 90  105 47 138  65 51 154  155 137 147  82 99 83  64 65 156  157 134 143  75 158 159  88 122 89  55 114 77  160 135 145  44 93 101  64 66 161  162 119 163  108 48 144  128 140 90  102 120 131  97 116 164  108 53 146  72 58 111  19 20 142  24 25 143  22 23 145  15 16 147  116 126 164  37 38 163  165 121 166  118 54 151  39 40 131  46 167 168  46 167 169  105 170 106  72 58 74  171 115 172  152 95 173  52 174 175  116 111 127  157 95 173  52 174 176  149 126 164  118 65 156  52 175 146  152 153 169  20 153 142  24 134 143  177 178 172  155 96 179  23 135 145  52 176 151  46 168 138  160 96 179  162 119 158  40 43 103  15 137 147  46 169 144  102 120 76  157 134 175  180 66 161  108 48 68  152 144 173  64 181 182  88 85 71  64 181 183  160 135 176  130 149 184  155 137 182  149 164 184  38 119 163  152 95 142  39 120 131  27 134 185  26 135 185  186 187 183  18 137 188  17 187 188  43 44 101  118 54 51  155 96 147  157 146 173  155 156 179  157 95 143  56 110 91  55 114 57  177 123 189  64 182 156  177 170 189  67 79 94  160 96 145  160 151 179  64 183 161  177 170 190  132 139 94  75 63 158  75 63 76  88 85 90  132 139 191  141 70 71  40 131 103  108 144 173  49 62 191  63 119 158  63 120 76  192 79 80  78 100 117  113 115 172  192 178 80  43 103 101  118 156 179  67 79 133  108 146 173  177 123 125  170 106 190  180 66 87  26 27 185  118 151 179  102 76 77  17 18 188  86 59 104  157 175 146  177 178 190  167 153 169  192 79 133  174 134 175  152 169 144  113 178 172  174 135 176  160 176 151  129 73 74  67 47 133  174 134 185  98 139 94  174 135 185  181 137 182  121 122 166  171 124 125  181 187 183  78 111 117  50 59 60  140 100 117  155 182 156  50 62 60  61 139 191  181 137 188  181 187 188  192 178 190  86 59 154  186 183 161  49 53 148  98 79 94  97 89 184  129 74 104  50 59 154  192 106 133  61 62 191  86 65 154  141 193 166  132 68 148  99 103 101  177 172 125  116 111 117  141 122 166  165 193 166  171 172 125  58 59 104  162 158 159  97 164 184  50 51 154  99 83 136  102 136 77  113 107 194  58 74 104  113 178 194  49 191 148  69 107 194  130 89 184  178 80 194  132 191 148  69 80 194  192 106 190  55 136 77  55 83 136  </DataArray>
<DataArray  type="UInt32"  Name="offsets"  format="ascii">3 6 9 12 15 18 21 24 27 30 33 36 39 42 45 48 51 54 57 60 63 66 69 72 75 78 81 84 87 90 93 96 99 102 105 108 111 114 117 120 123 126 129 132 135 138 141 144 147 150 153 156 159 162 165 168 171 174 177 180 183 186 189 192 195 198 201 204 207 210 213 216 219 222 225 228 231 234 237 240 243 246 249 252 255 258 261 264 267 270 273 276 279 282 285 288 291 294 297 300 303 306 309 312 315 318 321 324 327 330 333 336 339 342 345 348 351 354 357 360 363 366 369 372 375 378 381 384 387 390 393 396 399 402 405 408 411 414 417 420 423 426 429 432 435 438 441 444 447 450 453 456 459 462 465 468 471 474 477 480 483 486 489 492 495 498 501 504 507 510 513 516 519 522 525 528 531 534 537 540 543 546 549 552 555 558 561 564 567 570 573 576 579 582 585 588 591 594 597 600 603 606 609 612 615 618 621 624 627 630 633 636 639 642 645 648 651 654 657 660 663 666 669 672 675 678 681 684 687 690 693 696 699 702 705 708 711 714 717 720 723 726 729 732 735 738 741 744 747 750 753 756 759 762 765 768 771 774 777 780 783 786 789 792 795 798 801 804 807 810 813 816 819 822 825 828 831 834 837 840 843 846 849 852 855 858 861 864 867 870 873 876 879 882 885 888 891 894 897 900 903 906 909 912 915 918 921 924 927 930 933 936 939 942 945 948 951 954 957 960 963 966 969 972 975 978 981 984 987 990 993 996 999 1002 1005 1008 1011 </DataArray>
<DataArray  type="UInt8"  Name="types"  format="ascii">5 5 5 5 5 5 5 5 5 5 5 5 5 5 5 5 5 5 5 5 5 5 5 5 5 5 5 5 5 5 5 5 5 5 5 5 5 5 5 5 5 5 5 5 5 5 5 5 5 5 5 5 5 5 5 5 5 5 5 5 5 5 5 5 5 5 5 5 5 5 5 5 5 5 5 5 5 5 5 5 5 5 5 5 5 5 5 5 5 5 5 5 5 5 5 5 5 5 5 5 5 5 5 5 5 5 5 5 5 5 5 5 5 5 5 5 5 5 5 5 5 5 5 5 5 5 5 5 5 5 5 5 5 5 5 5 5 5 5 5 5 5 5 5 5 5 5 5 5 5 5 5 5 5 5 5 5 5 5 5 5 5 5 5 5 5 5 5 5 5 5 5 5 5 5 5 5 5 5 5 5 5 5 5 5 5 5 5 5 5 5 5 5 5 5 5 5 5 5 5 5 5 5 5 5 5 5 5 5 5 5 5 5 5 5 5 5 5 5 5 5 5 5 5 5 5 5 5 5 5 5 5 5 5 5 5 5 5 5 5 5 5 5 5 5 5 5 5 5 5 5 5 5 5 5 5 5 5 5 5 5 5 5 5 5 5 5 5 5 5 5 5 5 5 5 5 5 5 5 5 5 5 5 5 5 5 5 5 5 5 5 5 5 5 5 5 5 5 5 5 5 5 5 5 5 5 5 5 5 5 5 5 5 5 5 5 5 5 5 5 5 5 5 5 5 5 5 5 5 5 5 5 5 5 5 5 5 </DataArray>
</Cells>
<PointData  Vectors="f_43-0"> 
<DataArray  type="Float64"  Name="f_43-0"  NumberOfComponents="3" format="ascii">2.7769344772222107e-06 3.0019755526512980e-05 0.0000000000000000e+00  -1.0096262799456324e-05 5.7476354028151599e-05 0.0000000000000000e+00  1.4741264084667105e-05 5.7114047688615300e-05 0.0000000000000000e+00  7.7214976549038374e-06 -2.7063884240907290e-05 0.0000000000000000e+00  -5.6971848233178626e-06 1.9061688293024631e-06 0.0000000000000000e+00  2.0716035492504385e-05 1.6019144245424300e-06 0.0000000000000000e+00  1.2396665692452064e-05 -8.6583311206602257e-05 0.0000000000000000e+00  -1.3688957028306084e-06 -5.6513951951751509e-05 0.0000000000000000e+00  2.6229906702758799e-05 -5.6730703094899929e-05 0.0000000000000000e+00  1.6735377444561142e-05 -1.4783506204491841e-04 0.0000000000000000e+00  2.7926049004044715e-06 -1.1701565165767292e-04 0.0000000000000000e+00  3.1246547447997049e-05 -1.1711876634513278e-04 0.0000000000000000e+00  6.6991457534258714e-06 -1.7895664347501310e-04 0.0000000000000000e+00  3.5773569766886386e-05 -1.7881533293262461e-04 0.0000000000000000e+00  -2.3610143332421719e-06 8.3835247066347889e-05 0.0000000000000000e+00  -2.5084504700118577e-05 -1.3251785225444561e-04 0.0000000000000000e+00  -2.6765863776684272e-05 -1.0184221911659419e-04 0.0000000000000000e+00  -2.1751387157615719e-05 -1.9480703630779162e-04 0.0000000000000000e+00  -2.3405554223916191e-05 -1.6352940890986399e-04 0.0000000000000000e+00  -3.7110356834234370e-05 9.6458175945827586e-05 0.0000000000000000e+00  -3.8135678725591639e-05 1.2117399676014412e-04 0.0000000000000000e+00  -1.4458689153232803e-05 1.0929510461843368e-04 0.0000000000000000e+00  -2.8436718372780153e-05 -7.1569805065297689e-05 0.0000000000000000e+00  -3.0073487176817989e-05 -4.1787150523670132e-05 0.0000000000000000e+00  -3.4609491518824949e-05 4.3724527032719119e-05 0.0000000000000000e+00  -3.5924948372322788e-05 7.0594653502713961e-05 0.0000000000000000e+00  -3.1662910556024917e-05 -1.2575787818147250e-05 0.0000000000000000e+00  -3.3179743593595866e-05 1.5960225458269987e-05 0.0000000000000000e+00  2.3783549013399120e-05 2.9614066501789296e-05 0.0000000000000000e+00  2.9855047131566402e-05 -2.7377505070909736e-05 0.0000000000000000e+00  3.5362159418218607e-05 -8.6787268041944605e-05 0.0000000000000000e+00  4.0286033094415073e-05 -1.4791362234497322e-04 0.0000000000000000e+00  -6.6467209041315974e-06 -1.4787719928191593e-04 0.0000000000000000e+00  -1.0415768983352002e-05 -8.6556528148928389e-05 0.0000000000000000e+00  -2.1808465279551427e-05 8.3891714325588996e-05 0.0000000000000000e+00  -1.8116845594604097e-05 3.0098701197727078e-05 0.0000000000000000e+00  -1.4277491321299050e-05 -2.6996031579008872e-05 0.0000000000000000e+00  3.4086401852554676e-05 6.9661510261626242e-05 0.0000000000000000e+00  3.7949111673081391e-05 4.2832953780853964e-05 0.0000000000000000e+00  4.8337668682465242e-05 -4.2404240457483808e-05 0.0000000000000000e+00  5.1405525045584443e-05 -7.2055495416446338e-05 0.0000000000000000e+00  4.1610763349050430e-05 1.5139468103094246e-05 0.0000000000000000e+00  4.5073354285795979e-05 -1.3307583440511488e-05 0.0000000000000000e+00  5.4279285880566669e-05 -1.0217433320207043e-04 0.0000000000000000e+00  5.6961439318358282e-05 -1.3268000504633164e-04 0.0000000000000000e+00  5.9454666602511170e-05 -1.6350090479525157e-04 0.0000000000000000e+00  5.0738762266587456e-01 1.5924612616983691e-02 0.0000000000000000e+00  6.1518994932963211e-01 3.4124594710304962e-02 0.0000000000000000e+00  6.3495724679830023e-01 2.6274120681431746e-02 0.0000000000000000e+00  7.4593148189221259e-01 2.4501158388106757e-02 0.0000000000000000e+00  7.8558121635292077e-01 2.4919629182709055e-02 0.0000000000000000e+00  7.2592021948300378e-01 1.7886199990226493e-02 0.0000000000000000e+00  5.4755169930161662e-01 8.2564484692944223e-03 0.0000000000000000e+00  6.6136535338328006e-01 1.8302489356212769e-02 0.0000000000000000e+00  6.7568682197271446e-01 1.4924883951306984e-02 0.0000000000000000e+00  6.1295961990059877e-01 -1.0965230249645337e-02 0.0000000000000000e+00  6.7549916421208234e-01 -1.4757442409798453e-02 0.0000000000000000e+00  7.0417425266360323e-01 -1.8184489658046959e-02 0.0000000000000000e+00  8.3602886361074458e-01 2.8090572709332001e-02 0.0000000000000000e+00  8.0758226638194353e-01 2.5749852015271628e-02 0.0000000000000000e+00  8.2808524665639105e-01 2.9950189121052580e-02 0.0000000000000000e+00  8.3124484390875519e-01 3.5890261539154568e-02 0.0000000000000000e+00  8.0092478332496742e-01 3.0420311922679251e-02 0.0000000000000000e+00  2.9202990715457744e-01 -1.9992782542023776e-03 0.0000000000000000e+00  5.7291098828677867e-01 8.4508820121340835e-03 0.0000000000000000e+00  6.9292875753364025e-01 1.3832992046218682e-02 0.0000000000000000e+00  6.9350104013123592e-01 1.5618922266793281e-02 0.0000000000000000e+00  7.0545325806771064e-01 4.1644329128569010e-02 0.0000000000000000e+00  7.0044221942659501e-01 3.0245122775548822e-02 0.0000000000000000e+00  8.8457085688579196e-01 5.5644603065569891e-02 0.0000000000000000e+00  9.0415893147449078e-01 5.0463765265208974e-02 0.0000000000000000e+00  8.7763951493753189e-01 3.6702111410118560e-02 0.0000000000000000e+00  8.4045519091825438e-01 2.7775685588365264e-02 0.0000000000000000e+00  8.2662804491698638e-01 3.4592353785303065e-02 0.0000000000000000e+00  8.3180961463561143e-01 3.0394124222204243e-02 0.0000000000000000e+00  5.2476832451810362e-01 -8.2729596933204304e-03 0.0000000000000000e+00  4.2017776308614341e-01 -4.3130761478387489e-03 0.0000000000000000e+00  5.3741965242579159e-01 -7.7775865075519063e-03 0.0000000000000000e+00  8.4872140628040926e-01 2.8500342269044247e-02 0.0000000000000000e+00  7.8779300803938590e-01 5.5269699814538845e-02 0.0000000000000000e+00  8.2832334617573522e-01 6.4026270300182098e-02 0.0000000000000000e+00  8.7035306383025746e-01 4.9465239454767516e-02 0.0000000000000000e+00  4.9205136010121114e-01 -6.4288084236554461e-03 0.0000000000000000e+00  5.3396200300888408e-01 -7.4448163262031755e-03 0.0000000000000000e+00  5.7648992807018196e-01 -1.0347345133526779e-02 0.0000000000000000e+00  8.8203468874874558e-01 3.9542697305311569e-02 0.0000000000000000e+00  7.6735201094464289e-01 2.0606890422176817e-02 0.0000000000000000e+00  7.5632776651973366e-01 2.2478008973037776e-02 0.0000000000000000e+00  8.3524438681808122e-01 2.3473221706898428e-02 0.0000000000000000e+00  6.6192103137797198e-01 6.0938738173413167e-03 0.0000000000000000e+00  8.5669173309519742e-01 2.5471321606552057e-02 0.0000000000000000e+00  7.6762889724411676e-01 -2.4339290047416147e-02 0.0000000000000000e+00  4.1137628493634415e-01 -5.0563479126329823e-03 0.0000000000000000e+00  2.7182135252093670e-01 -1.9164500105818903e-03 0.0000000000000000e+00  7.7439206274408323e-01 4.4749913378776277e-02 0.0000000000000000e+00  2.6731030653429205e-01 2.0751684274286793e-03 0.0000000000000000e+00  2.8199819809945936e-01 1.3636550670124189e-03 0.0000000000000000e+00  7.9907773299064622e-01 1.0838160805581426e-02 0.0000000000000000e+00  8.3265479435707290e-01 4.8721699871341742e-02 0.0000000000000000e+00  3.7890698834902542e-01 -3.3289775833807069e-03 0.0000000000000000e+00  8.5567644989236080e-01 3.1329230122507629e-02 0.0000000000000000e+00  1.9154509294276117e-01 -9.1949932451092719e-04 0.0000000000000000e+00  3.8445936170233841e-01 -3.3551328281200723e-03 0.0000000000000000e+00  2.0928210199856473e-01 -1.0061554148698558e-03 0.0000000000000000e+00  8.0906394864583597e-01 2.6319418314035316e-02 0.0000000000000000e+00  5.3912274862731357e-01 3.1492564288065759e-02 0.0000000000000000e+00  6.4494986820790734e-01 5.0321080217791483e-02 0.0000000000000000e+00  8.9071746000552743e-01 6.5928922505675780e-02 0.0000000000000000e+00  5.9672348526888142e-01 1.6326226833340309e-02 0.0000000000000000e+00  6.8761323071195168e-01 -1.7216112041418687e-02 0.0000000000000000e+00  7.7135854422942163e-01 -2.4291348095891650e-02 0.0000000000000000e+00  8.4725004640685209e-01 2.4118600085771165e-02 0.0000000000000000e+00  9.1921883978777896e-01 7.3408077142511532e-02 0.0000000000000000e+00  8.4315620199882912e-01 8.0453524739676915e-02 0.0000000000000000e+00  6.3914325942743189e-01 -1.3862755601386232e-02 0.0000000000000000e+00  8.3399011811800738e-01 9.4309610065629990e-02 0.0000000000000000e+00  8.1849608948440733e-01 1.3975683879535166e-02 0.0000000000000000e+00  8.5212886586710368e-01 2.2648873342296292e-02 0.0000000000000000e+00  6.3076693072905843e-01 1.0307801566627396e-02 0.0000000000000000e+00  2.3043906431015537e-01 -1.2869583386980040e-03 0.0000000000000000e+00  2.3546666484283954e-01 -1.2220347796403483e-03 0.0000000000000000e+00  0.0000000000000000e+00 0.0000000000000000e+00 0.0000000000000000e+00  7.0967485495888172e-01 1.3251233528205602e-02 0.0000000000000000e+00  5.3688675093028038e-01 5.9596500768866509e-02 0.0000000000000000e+00  5.8568035989161726e-01 8.5980986089612660e-02 0.0000000000000000e+00  6.5024867121124652e-01 8.1577940480959774e-02 0.0000000000000000e+00  6.4609981356646595e-01 5.4492508829731678e-03 0.0000000000000000e+00  8.1761273340973917e-01 1.6508141841661137e-02 0.0000000000000000e+00  8.6513399024557669e-01 3.8576815079875350e-02 0.0000000000000000e+00  8.0252055904815955e-01 2.9205173552502475e-02 0.0000000000000000e+00  0.0000000000000000e+00 0.0000000000000000e+00 0.0000000000000000e+00  1.9233662910730767e-01 -8.4847878734811255e-04 0.0000000000000000e+00  7.6440940856048367e-01 3.6981991380325437e-02 0.0000000000000000e+00  6.9664827059164847e-01 4.9231478033921472e-02 0.0000000000000000e+00  2.3707769310697277e-01 1.2273847353792785e-03 0.0000000000000000e+00  2.4116407903554141e-01 1.0346627261468610e-03 0.0000000000000000e+00  5.0067816533407727e-01 -6.2539101775075830e-03 0.0000000000000000e+00  2.5205025651594809e-01 1.1551762564586713e-03 0.0000000000000000e+00  4.9660721391381768e-01 1.9926159008417314e-02 0.0000000000000000e+00  8.1913212499149146e-01 4.1987491920678265e-02 0.0000000000000000e+00  8.6024189443757759e-01 2.5700817312699235e-02 0.0000000000000000e+00  8.3960912798327159e-01 3.1633377090218399e-02 0.0000000000000000e+00  2.0709001967701809e-01 1.4263884588123304e-03 0.0000000000000000e+00  2.0383156846481054e-01 1.0461816225453622e-03 0.0000000000000000e+00  5.2583972175750515e-01 1.3530213984271084e-02 0.0000000000000000e+00  2.1104067018467751e-01 7.2009110001996796e-04 0.0000000000000000e+00  5.4472671073818746e-01 1.0073584762654119e-02 0.0000000000000000e+00  2.2304756337052856e-01 8.2583620464433038e-04 0.0000000000000000e+00  7.3677271115638887e-01 2.9003088137166629e-02 0.0000000000000000e+00  0.0000000000000000e+00 0.0000000000000000e+00 0.0000000000000000e+00  0.0000000000000000e+00 0.0000000000000000e+00 0.0000000000000000e+00  5.6139498402156318e-01 7.6557067910514856e-03 0.0000000000000000e+00  3.8302162166075210e-01 5.5038430205741340e-03 0.0000000000000000e+00  2.2637958623237406e-01 1.9996214536941877e-03 0.0000000000000000e+00  7.6427143092186001e-01 2.0529891992897155e-02 0.0000000000000000e+00  4.1307157024322644e-01 3.3415127858396274e-03 0.0000000000000000e+00  5.7134241371324668e-01 7.6154067390899983e-03 0.0000000000000000e+00  4.0436002977571944e-01 4.6722083979393340e-03 0.0000000000000000e+00  4.1047119304337698e-01 -4.6820872434753897e-03 0.0000000000000000e+00  5.1578973129627370e-01 -9.4479734676949229e-03 0.0000000000000000e+00  4.1887675073916797e-01 3.4098907025048148e-03 0.0000000000000000e+00  5.8301510270676526e-01 1.0893818544054632e-02 0.0000000000000000e+00  3.7096141995546306e-01 -4.1329300092911286e-03 0.0000000000000000e+00  1.9429685078278164e-01 -9.7897626636744991e-04 0.0000000000000000e+00  6.8455877260684339e-01 3.7257459751525953e-03 0.0000000000000000e+00  0.0000000000000000e+00 0.0000000000000000e+00 0.0000000000000000e+00  5.8654010563134151e-01 7.9992431563886066e-03 0.0000000000000000e+00  3.2594826186397691e-01 5.1876418758360996e-03 0.0000000000000000e+00  3.9917918238136257e-01 9.8133595232486638e-03 0.0000000000000000e+00  4.1219808492423299e-01 7.8624300962209150e-03 0.0000000000000000e+00  5.8816825530421091e-01 4.9950358929990772e-02 0.0000000000000000e+00  7.1299955915295410e-01 9.4894231141455385e-02 0.0000000000000000e+00  7.5380283863020736e-01 8.6209162433711323e-02 0.0000000000000000e+00  4.7470815848891695e-01 8.1984694170408878e-03 0.0000000000000000e+00  3.5118957836285447e-01 2.6103980375426867e-03 0.0000000000000000e+00  4.3564191304632865e-01 4.8544977262800033e-03 0.0000000000000000e+00  4.4267206190084002e-01 4.2261266785049174e-03 0.0000000000000000e+00  6.5363314383401583e-01 7.0510491445894552e-02 0.0000000000000000e+00  7.7648425731225057e-01 7.4327006664669598e-02 0.0000000000000000e+00  5.0156315858791112e-01 5.2832225059199983e-03 0.0000000000000000e+00  6.6774935728777551e-01 1.8875521116940869e-02 0.0000000000000000e+00  3.6821869188257489e-01 3.0425028591437478e-03 0.0000000000000000e+00  4.5194547456922690e-01 4.3519367737977870e-03 0.0000000000000000e+00  4.5739140105878168e-01 5.6106418725491826e-03 0.0000000000000000e+00  5.0723532045568109e-01 -8.4649401131178521e-04 0.0000000000000000e+00  1.7331798280393873e-01 5.7915162409527630e-04 0.0000000000000000e+00  4.1963570852854382e-01 5.7185918025205607e-03 0.0000000000000000e+00  2.5612504467974956e-01 1.5636347905145763e-03 0.0000000000000000e+00  1.7095031364574820e-01 5.0258344579652656e-04 0.0000000000000000e+00  5.2744512820104716e-01 4.8306962709789292e-02 0.0000000000000000e+00  6.8793289521492096e-01 6.4344725667465019e-02 0.0000000000000000e+00  7.8710954101899311e-01 3.4100314896771143e-02 0.0000000000000000e+00  7.3690461839293486e-01 6.1812690252584186e-02 0.0000000000000000e+00  7.2762884985551179e-01 2.2908709115434620e-02 0.0000000000000000e+00  8.5376141990168775e-01 6.9584605952651202e-02 0.0000000000000000e+00  </DataArray> 
</PointData> 
</Piece>
</UnstructuredGrid>
</VTKFile>