<?xml version="1.0"?>
<VTKFile type="UnstructuredGrid"  version="0.1"  >
<UnstructuredGrid>
<Piece  NumberOfPoints="195" NumberOfCells="335">
<Points>
<DataArray  type="Float64"  NumberOfComponents="3"  format="ascii">0.1123698019379044 0.2058991360802581 0  0.1106531987626008 0.1894643335925837 0  0.09638298985168356 0.2000713960717276 0  0.05117116986370451 0.1453484941029572 0  0.028576868323113 0.1257840022252348 0  0.02526469030969892 0.1581631046774197 0  0.1643783325218296 0.1320455275536215 0  0.1492552100538899 0.1320415135830948 0  0.1603037058708973 0.1432581839427922 0  0.07781603907681035 0.1514291067465787 0  0.06748599119092742 0.1295390004813558 0  0.228090483983057 0.1360461642521307 0  0.2156274396954392 0.1428329882811742 0  0.2231096629876289 0.1473860403476538 0  0.09145562669711395 0.175668370620234 0  0.09635163646555502 0.1596076048115481 0  0.07646146193815946 0.1687797331838 0  0 0.05857142857161107 0  0 0.02928571428580012 0  0.02797905238142366 0.04239836249189064 0  0.1521457199348437 0.2144902684393899 0  0.1547844879126531 0.221343792228163 0  0.1460074103989341 0.2155962236814484 0  0.06224717571675014 0.16049953533406 0  0 0.1464285714289574 0  0.1340109150974826 0.1326286508362426 0  0.1230381620938855 0.1450531231009962 0  0.1371388187715824 0.1487519394947238 0  0.1502170850938848 0.1478553695050668 0  0.07538638723190919 0.1915913195394167 0  0.09898678642452967 0.1862327908870533 0  0.1843109002236991 0.1108412192449581 0  0.1663792634974669 0.1129031590983526 0  0.1730791557496665 0.09449610930120438 0  0.1497148406801674 0.1059683048239758 0  0.1319376419904144 0.1078314072630599 0  0.1422873301607691 0.09099989767432708 0  0.05400790163887537 0.1101452894911868 0  0.03212895351398194 0.09444182905744057 0  0.1292063859387973 0.160179270973018 0  0.235428184091502 0 0  0.2269089833956681 0.04173965335049001 0  0.2054867233040618 0.02496467843107029 0  0.1877417105387872 0.1515259415822739 0  0.1807733240461124 0.153844448527136 0  0.1810237202008071 0.1443964565620037 0  0.1440834152269613 0.2215292013094449 0  0.1984955210867955 0.1136055788350874 0  0.1897964898761356 0.09526420071455169 0  0.1151037363297016 0.1585854167638264 0  0.1231191457617618 0.1724983802372761 0  0.2542757755299287 0.02753888901404131 0  0.2023158100364996 0.1500536585536553 0  0.194974551899914 0.1502531923497262 0  0.1988434545186226 0.1412267786066319 0  0.1355360062927427 0.1738833905690768 0  0.139904094447954 0.0475963399258769 0  0.1148334976584671 0.02974143409366008 0  0.1520649328173654 0.02654404467430412 0  0.2166911463437691 0.1528682099456123 0  0.2096071079204251 0.1509316448471593 0  0.157033859236083 0.1549203861564464 0  0.1666775543554036 0.1527311555964813 0  0.1709026911846327 0.1428229394764081 0  0.13855578359055 0.1617173140777549 0  0.1050372607361503 0.1429640509822009 0  0.0935028978038551 0.1155179240798671 0  0.111152240021284 0.1189096594659376 0  0.1054072552277489 0.1021549990488465 0  0.1096093854383046 0.1735927505678576 0  0.1273239957535082 0 0  0 0.2050000000005308 0  0 0.175714285714732 0  0.02618711892167316 0.1853857958188918 0  0.01613142829340684 0.1072217040510405 0  0.122936306709419 0.1942457603434553 0  0.06019518928764452 0.1756854700606436 0  0.04799687037553593 0.1900185470502504 0  0.2166066364647865 0.1318674827965409 0  0.2211645858397942 0.1228171087145059 0  0.02666772661991777 0.0679778810487357 0  0 0.1171428571431897 0  0.1014345676140794 0.1290819941168235 0  0.117949309539449 0.1314289940198134 0  0.1036135449877143 0.05738959277900078 0  0.09466282906331301 0.08157239522441412 0  0.07832843537012292 0.06126359650172827 0  0.1391384346554765 0.1858795044738252 0  0.145931504770643 0.1790663128181236 0  0.122631157988491 0.09257199523221718 0  0.1134537715612197 0.07678361544475715 0  0.1543497545781645 0.1644684805108295 0  0.1465332544464342 0.1576333074590302 0  0.1768496449561323 0.1335347700706724 0  0.1432528331866671 0.1403427880156989 0  0.2063021547212692 0.09746645431143124 0  0.09081855865494762 0.03967545099949583 0  0.08022298127737337 0.02066125809180845 0  0.1445088930113995 0.1682503620331025 0  0.02189315577988027 0.02003654345635235 0  0.1547844879126891 0.178656207771761 0  0.1521457199348551 0.1855097315605723 0  0.1505393388476328 0.2073241380633295 0  0.1411840007379324 0.2116418969121702 0  0.09153146034330391 0.147014376487579 0  0.162910430003803 0.1664684656256651 0  0.1583987151779087 0.1722631454351573 0  0.1581391111780151 0.09342872668547121 0  0.1287170257632792 0.184020996598548 0  0.1742197252835808 0.15715869474974 0  0.1682222986673531 0.1613971801805478 0  0.1417345422718611 0.1196357446143074 0  0.15 0.2 0  0.1505393388476355 0.1926758619366523 0  0.1422409429600901 0.1949058082424083 0  0.1800175691778405 0.1220029873035379 0  0.08753885022423818 0.1327572923195972 0  0.09377624077125973 0 0  0.1190100010379731 0.1821161889112382 0  0.142418795187722 0.2037346032343752 0  0.1900464160197788 0.1434391807715867 0  0.2340427519707383 0.12500661673201 0  0.1746666922495988 0.1499058539490714 0  0.2092567323014181 0.1231268265338988 0  0.2148660291046949 0.1110801690257468 0  0.1358421380985344 0.07184101253224438 0  0.1970804225914977 0.07638822249409431 0  0.1512336529604225 0.1723680822309486 0  0.1362495245357279 0.2216212078679356 0  0.1692118283604925 0.1236341708275373 0  0.05089208832759198 0.1278218136608264 0  0.07652608185644398 0.1136649778936783 0  0 0.08785714285737878 0  0.2311198366185791 0.1437551092913072 0  0.1777108984146039 0.03960446592307849 0  0.1570548482231846 0.05573307794728176 0  0.1564186559410363 0.1212209553520046 0  0.2067838776803175 0.1442269954006475 0  0.23872107061991 0.1472714280426708 0  0.2490293115886795 0.1431700167801526 0  0.2448734012151204 0.1541363176121021 0  0.2473666618189879 0.1284124620716267 0  0.238348372815025 0.1368713418351483 0  0.1222490905968041 0.0568943244623543 0  0.2077074758137319 0.1359897507413737 0  0.1990707649929309 0.1296245621647927 0  0.05279799154606677 0.07413248748556238 0  0.05175480232928564 0.05161223413186988 0  0.2296339016332438 0.1597280261969788 0  0.2234150974217223 0.1558215752574715 0  0.2304119763419897 0.1515908441060641 0  0.1253993623290572 0.2064220893288703 0  0.1595371636519827 0.07838695808624725 0  0.1461361374362119 0.1877340006482242 0  0.04532626869875341 0.1677660334507069 0  0.1334936092195415 0.1996994045566088 0  0.05608725465409541 0.09204870468608509 0  0.1619806510917199 0.1601561579838679 0  0.2000506922905834 0.05138745584171936 0  0.1769147510702603 0.06290595158306629 0  0.2372267379181886 0.156514666897516 0  0.1620856860351972 0 0  0.213756581476409 0.08311851351475982 0  0.2259637082614391 0.09968835807421736 0  0.1981052433264291 0 0  0.07008568006437076 0.038573163912329 0  0.1315669208937715 0.2153401624373302 0  0.2312810177471911 0.08330382810563154 0  0.252515959816117 0.07648796931448625 0  0.2416741650815652 0.0950846504064212 0  0.2178953059102855 0.06599367533480922 0  0.2437828577465094 0.1110862473067074 0  0 0 0  0.03015443760436003 0 0  0.2280545270734199 0.114161215267224 0  0.2741016576309132 0 0  0.1340862878862802 0.2075381961934842 0  0.1874494447592934 0.1304389264391784 0  0.07522121061998752 0.08286780747833024 0  0.06140001986583606 0 0  0.04981329681653419 0.02287349761798159 0  0.2731077660562961 0.05508844879223635 0  0.247794183473202 0.05155939024503531 0  0.1261668873624441 0.1203748521618074 0  0.1332359054626095 0.1910279922431038 0  0.1851500288844805 0.1377443395869293 0  0.1185608756269049 0.1083965233746596 0  0.1208839583881551 0.2181173442085023 0  0.179425619413292 0.01748466926548749 0  0.1795103306938107 0.08060563341732667 0  0.1927059842241056 0.1364147326068345 0  0.2356079172485811 0.06536850945193971 0  0.1897996484266387 0.1213827416278163 0  0.08823391104783466 0.09873317213709612 0  0.0736413556775514 0.09691323218918799 0  </DataArray>
</Points>
<Cells>
<DataArray  type="UInt32"  Name="connectivity"  format="ascii">0 1 2  3 4 5  6 7 8  3 9 10  11 12 13  14 15 16  17 18 19  20 21 22  3 9 23  24 4 5  25 26 27  28 7 8  2 29 30  31 32 33  34 35 36  9 15 16  37 4 38  39 26 27  14 29 30  40 41 42  43 44 45  21 46 22  31 47 48  39 49 50  40 41 51  52 53 54  39 55 50  56 57 58  59 60 12  61 62 8  6 63 8  39 55 64  65 26 49  66 67 68  69 1 30  70 57 58  14 69 15  71 72 73  39 26 49  4 38 74  0 1 75  14 69 30  76 29 77  11 78 79  17 19 80  24 81 4  66 67 82  65 15 49  65 26 83  84 85 86  87 88 55  89 35 36  89 68 90  61 91 92  6 63 93  25 27 94  72 73 5  95 47 48  57 96 97  98 55 64  11 12 78  18 19 99  14 29 16  100 101 88  98 88 55  102 103 22  9 15 104  84 85 90  28 7 94  28 27 92  28 61 8  105 106 91  32 33 107  108 87 55  109 110 62  98 91 92  46 103 22  85 68 90  34 35 111  112 113 114  31 32 115  9 10 116  117 57 97  69 1 118  65 83 82  34 32 107  102 103 119  27 92 64  63 62 8  43 45 120  11 121 79  44 45 122  63 45 93  28 61 92  69 15 49  123 47 124  25 26 83  102 20 22  89 125 90  53 54 120  117 70 57  69 49 50  126 95 48  98 91 127  46 103 128  32 115 129  3 4 130  66 116 131  132 38 80  98 88 127  25 7 111  11 13 133  134 58 135  56 58 135  6 7 136  52 54 137  53 43 120  138 139 140  59 12 13  95 47 124  72 24 5  141 139 142  60 12 137  100 88 127  84 57 143  123 144 145  39 27 64  146 38 80  146 80 147  31 33 48  37 4 130  148 149 150  0 75 151  106 91 127  123 144 78  84 86 96  25 7 94  152 125 36  34 32 136  101 88 153  73 154 77  132 17 80  1 2 30  89 125 36  144 54 145  76 29 16  73 5 154  149 59 13  152 125 135  56 57 143  112 114 119  155 114 119  109 62 122  37 38 156  105 91 157  10 116 131  126 158 159  148 160 150  70 161 58  110 62 157  126 95 162  76 154 77  95 163 162  155 75 151  164 40 42  113 114 153  3 5 154  134 158 42  144 12 78  19 80 147  106 100 127  165 86 96  3 10 130  149 150 13  138 139 142  63 62 122  166 103 128  167 168 169  126 158 170  138 142 133  141 171 121  112 102 119  146 86 147  95 124 163  123 145 47  146 38 156  172 18 99  67 83 82  172 173 99  174 171 163  40 175 51  155 119 176  84 57 96  177 93 115  9 116 104  63 45 122  146 86 178  173 179 180  28 27 94  181 168 182  25 111 183  85 86 178  155 75 184  181 51 182  108 55 50  34 111 136  7 111 136  108 87 184  45 93 185  132 38 74  174 171 121  41 51 182  6 93 129  87 114 184  67 68 186  44 109 122  166 151 187  56 125 135  134 42 188  165 86 147  81 4 74  134 158 159  152 36 107  89 35 186  125 90 143  138 160 150  152 33 189  87 88 153  108 75 118  66 116 82  87 114 153  103 119 176  60 52 137  108 75 184  144 54 137  165 180 97  61 91 157  54 145 190  173 180 99  93 115 129  144 12 137  61 62 157  179 180 97  165 180 147  41 170 191  19 180 147  37 10 131  11 142 133  81 132 74  145 47 192  177 145 192  35 111 183  155 151 176  34 36 107  152 159 189  161 164 188  0 151 187  65 116 104  65 116 82  146 156 178  166 151 176  41 158 170  6 136 129  134 159 135  171 163 169  179 117 97  152 159 135  155 114 184  152 33 107  167 170 162  126 170 162  41 182 191  65 15 104  66 131 193  37 10 130  166 103 176  89 68 186  177 93 185  138 160 140  138 150 133  85 193 178  167 163 162  33 48 189  167 168 191  19 180 99  41 158 42  126 48 189  11 142 121  37 194 131  1 75 118  177 145 190  126 159 189  101 113 153  194 193 178  98 92 64  76 154 23  167 170 191  194 156 178  67 186 183  134 58 188  66 68 193  110 105 157  76 16 23  56 125 143  194 131 193  69 50 118  123 124 79  32 136 129  85 68 193  31 47 192  37 194 156  84 90 143  174 124 163  9 16 23  177 115 192  150 13 133  35 186 183  168 182 191  108 50 118  141 142 121  174 121 79  45 120 185  123 78 79  3 154 23  54 120 190  161 58 188  67 83 183  31 115 192  174 124 79  165 96 97  25 83 183  164 42 188  120 185 190  167 163 169  177 185 190  </DataArray>
<DataArray  type="UInt32"  Name="offsets"  format="ascii">3 6 9 12 15 18 21 24 27 30 33 36 39 42 45 48 51 54 57 60 63 66 69 72 75 78 81 84 87 90 93 96 99 102 105 108 111 114 117 120 123 126 129 132 135 138 141 144 147 150 153 156 159 162 165 168 171 174 177 180 183 186 189 192 195 198 201 204 207 210 213 216 219 222 225 228 231 234 237 240 243 246 249 252 255 258 261 264 267 270 273 276 279 282 285 288 291 294 297 300 303 306 309 312 315 318 321 324 327 330 333 336 339 342 345 348 351 354 357 360 363 366 369 372 375 378 381 384 387 390 393 396 399 402 405 408 411 414 417 420 423 426 429 432 435 438 441 444 447 450 453 456 459 462 465 468 471 474 477 480 483 486 489 492 495 498 501 504 507 510 513 516 519 522 525 528 531 534 537 540 543 546 549 552 555 558 561 564 567 570 573 576 579 582 585 588 591 594 597 600 603 606 609 612 615 618 621 624 627 630 633 636 639 642 645 648 651 654 657 660 663 666 669 672 675 678 681 684 687 690 693 696 699 702 705 708 711 714 717 720 723 726 729 732 735 738 741 744 747 750 753 756 759 762 765 768 771 774 777 780 783 786 789 792 795 798 801 804 807 810 813 816 819 822 825 828 831 834 837 840 843 846 849 852 855 858 861 864 867 870 873 876 879 882 885 888 891 894 897 900 903 906 909 912 915 918 921 924 927 930 933 936 939 942 945 948 951 954 957 960 963 966 969 972 975 978 981 984 987 990 993 996 999 1002 1005 </DataArray>
<DataArray  type="UInt8"  Name="types"  format="ascii">5 5 5 5 5 5 5 5 5 5 5 5 5 5 5 5 5 5 5 5 5 5 5 5 5 5 5 5 5 5 5 5 5 5 5 5 5 5 5 5 5 5 5 5 5 5 5 5 5 5 5 5 5 5 5 5 5 5 5 5 5 5 5 5 5 5 5 5 5 5 5 5 5 5 5 5 5 5 5 5 5 5 5 5 5 5 5 5 5 5 5 5 5 5 5 5 5 5 5 5 5 5 5 5 5 5 5 5 5 5 5 5 5 5 5 5 5 5 5 5 5 5 5 5 5 5 5 5 5 5 5 5 5 5 5 5 5 5 5 5 5 5 5 5 5 5 5 5 5 5 5 5 5 5 5 5 5 5 5 5 5 5 5 5 5 5 5 5 5 5 5 5 5 5 5 5 5 5 5 5 5 5 5 5 5 5 5 5 5 5 5 5 5 5 5 5 5 5 5 5 5 5 5 5 5 5 5 5 5 5 5 5 5 5 5 5 5 5 5 5 5 5 5 5 5 5 5 5 5 5 5 5 5 5 5 5 5 5 5 5 5 5 5 5 5 5 5 5 5 5 5 5 5 5 5 5 5 5 5 5 5 5 5 5 5 5 5 5 5 5 5 5 5 5 5 5 5 5 5 5 5 5 5 5 5 5 5 5 5 5 5 5 5 5 5 5 5 5 5 5 5 5 5 5 5 5 5 5 5 5 5 5 5 5 5 5 5 5 5 5 5 5 5 5 5 5 5 5 5 5 5 5 5 5 5 </DataArray>
</Cells>
<PointData  Vectors="f_43-0"> 
<DataArray  type="Float64"  Name="f_43-0"  NumberOfComponents="3" format="ascii">1.0206560039241948e+00 7.0934607209349979e-02 0.0000000000000000e+00  1.0523082028424777e+00 -1.4458555429362893e-01 0.0000000000000000e+00  1.1901714382420978e+00 -3.2477230244843652e-03 0.0000000000000000e+00  1.3470461343633966e+00 -1.2091035120769472e-01 0.0000000000000000e+00  1.2742179833558449e+00 -6.8718925920987120e-02 0.0000000000000000e+00  1.4130367528385128e+00 -4.6492617324491725e-02 0.0000000000000000e+00  1.6972272088946929e+00 -7.9308275522294980e-01 0.0000000000000000e+00  1.5066398924977353e+00 -7.2347558856361871e-01 0.0000000000000000e+00  1.6086081578866556e+00 -9.6911557220850619e-01 0.0000000000000000e+00  1.3215945171002161e+00 -2.0701250011752428e-01 0.0000000000000000e+00  1.2820371472144272e+00 -1.8823033378166179e-01 0.0000000000000000e+00  1.1395872136626697e+00 -9.8407728794180804e-02 0.0000000000000000e+00  6.2401410778059840e-01 -3.6789748777447645e-02 0.0000000000000000e+00  1.7850693063810957e-01 -1.5482290285444811e-02 0.0000000000000000e+00  1.2538552455224490e+00 -1.7766998514526236e-01 0.0000000000000000e+00  1.2626516917097907e+00 -2.8488435376722065e-01 0.0000000000000000e+00  1.3285876883375354e+00 -1.5285624121750244e-01 0.0000000000000000e+00  7.3469387755292814e-01 0.0000000000000000e+00 0.0000000000000000e+00  3.9795918367454608e-01 0.0000000000000000e+00 0.0000000000000000e+00  5.6797931181013872e-01 -2.9649426109758140e-02 0.0000000000000000e+00  0.0000000000000000e+00 0.0000000000000000e+00 0.0000000000000000e+00  0.0000000000000000e+00 0.0000000000000000e+00 0.0000000000000000e+00  3.4621855352336173e-01 6.2079314945764297e-01 0.0000000000000000e+00  1.3639761796691285e+00 -1.3189910245486713e-01 0.0000000000000000e+00  1.3775510204097772e+00 0.0000000000000000e+00 0.0000000000000000e+00  1.3801323817688287e+00 -6.0704860597842847e-01 0.0000000000000000e+00  1.2786607244251549e+00 -5.4382991813689185e-01 0.0000000000000000e+00  1.2904381302521020e+00 -7.2806839178159810e-01 0.0000000000000000e+00  1.4053722190689606e+00 -9.1764220250146722e-01 0.0000000000000000e+00  1.3417395775802348e+00 -4.4979314725553429e-02 0.0000000000000000e+00  1.1796250395940446e+00 -1.3330084675327530e-01 0.0000000000000000e+00  1.7896260008593505e+00 -5.2377346417866655e-01 0.0000000000000000e+00  1.6387435905883174e+00 -5.7912595137157186e-01 0.0000000000000000e+00  1.5549549638130011e+00 -4.2200170367140732e-01 0.0000000000000000e+00  1.4654277075936686e+00 -4.9409709936481411e-01 0.0000000000000000e+00  1.3590837019248523e+00 -4.4583995570431911e-01 0.0000000000000000e+00  1.3292662862302358e+00 -3.8217990659371709e-01 0.0000000000000000e+00  1.1881460139113269e+00 -1.3839221152442849e-01 0.0000000000000000e+00  1.0713071795705507e+00 -7.2848473369353184e-02 0.0000000000000000e+00  1.1366641831944977e+00 -6.1867725486027414e-01 0.0000000000000000e+00  0.0000000000000000e+00 0.0000000000000000e+00 0.0000000000000000e+00  1.1902923015860765e+00 -9.4284345502824662e-02 0.0000000000000000e+00  8.9164972595187775e-01 -5.2216258636520720e-02 0.0000000000000000e+00  0.0000000000000000e+00 0.0000000000000000e+00 0.0000000000000000e+00  0.0000000000000000e+00 0.0000000000000000e+00 0.0000000000000000e+00  1.7020628272781395e+00 -7.5752047825787294e-01 0.0000000000000000e+00  6.0577023808457064e-01 7.4609677166607613e-01 0.0000000000000000e+00  1.9073526473700928e+00 -4.7090287703463823e-01 0.0000000000000000e+00  1.6701462536197496e+00 -3.9075287035408607e-01 0.0000000000000000e+00  1.1984769661800088e+00 -4.4256488997462706e-01 0.0000000000000000e+00  1.0233396909181183e+00 -4.5328487965608522e-01 0.0000000000000000e+00  1.0951957798286538e+00 -1.4256930605657593e-02 0.0000000000000000e+00  0.0000000000000000e+00 0.0000000000000000e+00 0.0000000000000000e+00  0.0000000000000000e+00 0.0000000000000000e+00 0.0000000000000000e+00  1.3123910170884141e+00 -2.7678867518569489e-01 0.0000000000000000e+00  8.6583855663713871e-01 -6.4574999780766706e-01 0.0000000000000000e+00  9.2132004430385850e-01 -1.6520263288054646e-01 0.0000000000000000e+00  6.0310208885294114e-01 -7.7922048850736503e-02 0.0000000000000000e+00  7.0551322018471130e-01 -7.5189543495619793e-02 0.0000000000000000e+00  0.0000000000000000e+00 0.0000000000000000e+00 0.0000000000000000e+00  0.0000000000000000e+00 0.0000000000000000e+00 0.0000000000000000e+00  1.3764429971754184e+00 -1.1347291205678274e+00 0.0000000000000000e+00  1.4746576031001104e+00 -1.0801063149099943e+00 0.0000000000000000e+00  1.7987336747209128e+00 -9.8513786232937384e-01 0.0000000000000000e+00  1.1002150260763668e+00 -7.9597226950409006e-01 0.0000000000000000e+00  1.2830223132471203e+00 -3.8103355205703582e-01 0.0000000000000000e+00  1.2506488005067387e+00 -2.9303998151682881e-01 0.0000000000000000e+00  1.2953841722666335e+00 -3.8911959381515215e-01 0.0000000000000000e+00  1.2239524596295144e+00 -3.1013412419971886e-01 0.0000000000000000e+00  1.1396845608207331e+00 -2.9584524599804612e-01 0.0000000000000000e+00  0.0000000000000000e+00 0.0000000000000000e+00 0.0000000000000000e+00  1.5000000000000002e+00 0.0000000000000000e+00 0.0000000000000000e+00  1.4693877551029737e+00 0.0000000000000000e+00 0.0000000000000000e+00  1.4726905525347476e+00 -1.9553762108222544e-02 0.0000000000000000e+00  1.1602852649586068e+00 -3.7614593127196352e-02 0.0000000000000000e+00  8.4547170277362660e-01 -1.2028321213220287e-01 0.0000000000000000e+00  1.3856203210977174e+00 -8.3929799765799132e-02 0.0000000000000000e+00  1.4363009869414813e+00 -2.7171120492349193e-02 0.0000000000000000e+00  1.7051997337997444e+00 -2.6547281198598388e-01 0.0000000000000000e+00  1.9979463018175081e+00 -3.3058842215046164e-01 0.0000000000000000e+00  8.3879881340218942e-01 -4.6687645429922639e-02 0.0000000000000000e+00  1.2244897959204533e+00 0.0000000000000000e+00 0.0000000000000000e+00  1.2887986369462276e+00 -3.5315932282846446e-01 0.0000000000000000e+00  1.3155928822350216e+00 -4.6767815141842195e-01 0.0000000000000000e+00  8.8101956803830073e-01 -1.6285942804370429e-01 0.0000000000000000e+00  1.0659877986409789e+00 -2.1678289829199671e-01 0.0000000000000000e+00  8.4702980202580824e-01 -1.2978141591866002e-01 0.0000000000000000e+00  5.4303153846474905e-01 -5.0054045434610961e-01 0.0000000000000000e+00  5.3528184502165210e-01 -8.0381715623971983e-01 0.0000000000000000e+00  1.2400986951930655e+00 -3.3686097338749788e-01 0.0000000000000000e+00  1.0900325739715231e+00 -2.5049168251990062e-01 0.0000000000000000e+00  1.0053774509201487e+00 -1.1352646617046134e+00 0.0000000000000000e+00  1.2062921594456102e+00 -9.5099247105042117e-01 0.0000000000000000e+00  1.8904050423071217e+00 -8.0156949540280065e-01 0.0000000000000000e+00  1.4164537831608373e+00 -7.5081970783866137e-01 0.0000000000000000e+00  1.7833120994587555e+00 -3.4857761293835415e-01 0.0000000000000000e+00  6.5197068082222209e-01 -9.0958686054659343e-02 0.0000000000000000e+00  3.8006131716960045e-01 -3.1676667658349152e-02 0.0000000000000000e+00  9.2943869067251617e-01 -9.2829421536521828e-01 0.0000000000000000e+00  2.8491044218304412e-01 -8.4534049466267591e-03 0.0000000000000000e+00  0.0000000000000000e+00 0.0000000000000000e+00 0.0000000000000000e+00  0.0000000000000000e+00 0.0000000000000000e+00 0.0000000000000000e+00  0.0000000000000000e+00 0.0000000000000000e+00 0.0000000000000000e+00  4.2364129493271824e-01 4.2348950377249373e-01 0.0000000000000000e+00  1.2889273958305250e+00 -2.8874179748848533e-01 0.0000000000000000e+00  0.0000000000000000e+00 0.0000000000000000e+00 0.0000000000000000e+00  0.0000000000000000e+00 0.0000000000000000e+00 0.0000000000000000e+00  1.4477105075839578e+00 -4.1711564552566249e-01 0.0000000000000000e+00  8.1200966393826313e-01 -3.7107784716162723e-01 0.0000000000000000e+00  0.0000000000000000e+00 0.0000000000000000e+00 0.0000000000000000e+00  0.0000000000000000e+00 0.0000000000000000e+00 0.0000000000000000e+00  1.4479933968926171e+00 -5.7012750384395805e-01 0.0000000000000000e+00  0.0000000000000000e+00 0.0000000000000000e+00 0.0000000000000000e+00  0.0000000000000000e+00 0.0000000000000000e+00 0.0000000000000000e+00  2.8486387043557804e-01 -2.2276059863738223e-01 0.0000000000000000e+00  1.8478501999167358e+00 -6.4264963269338282e-01 0.0000000000000000e+00  1.2886603771025276e+00 -2.7594638267546345e-01 0.0000000000000000e+00  0.0000000000000000e+00 0.0000000000000000e+00 0.0000000000000000e+00  9.7694084077261611e-01 -2.9725812173023780e-01 0.0000000000000000e+00  2.6599518844532311e-01 1.3743340334536119e-01 0.0000000000000000e+00  1.4132603093526985e+00 -4.2956946794339795e-01 0.0000000000000000e+00  1.8513281729604858e+00 -2.2214600703042653e-01 0.0000000000000000e+00  1.4358908436518789e+00 -8.0051370502175190e-01 0.0000000000000000e+00  2.0163114489347436e+00 -4.2440209235487658e-01 0.0000000000000000e+00  1.9622568987648055e+00 -3.6535243430508219e-01 0.0000000000000000e+00  1.1440106733763689e+00 -2.7221217561333455e-01 0.0000000000000000e+00  1.5075626633724977e+00 -2.8153419055198842e-01 0.0000000000000000e+00  6.8932305983245235e-01 -9.9533847423304711e-01 0.0000000000000000e+00  7.6766704265268249e-01 5.8088863516503964e-01 0.0000000000000000e+00  1.7337073553189637e+00 -6.8979050636295336e-01 0.0000000000000000e+00  1.2801713423600805e+00 -1.3437084318627884e-01 0.0000000000000000e+00  1.2219868788643355e+00 -2.1919303628841183e-01 0.0000000000000000e+00  1.0102040816346260e+00 0.0000000000000000e+00 0.0000000000000000e+00  4.1096770415179618e-01 -3.0869388701034079e-02 0.0000000000000000e+00  9.9327664911200686e-01 -1.2847533285573606e-01 0.0000000000000000e+00  1.0890993338848711e+00 -2.0945955126074275e-01 0.0000000000000000e+00  1.5819301443458031e+00 -6.4865219304915400e-01 0.0000000000000000e+00  6.2795002354509777e-01 -5.5725520884170363e-02 0.0000000000000000e+00  1.9496650863931556e-01 -3.9263674150220820e-02 0.0000000000000000e+00  4.2097374670464266e-01 -4.0223620797079654e-02 0.0000000000000000e+00  -6.8586282190660102e-04 -6.6244409991553260e-02 0.0000000000000000e+00  1.5475475811179547e+00 -1.2094487081185727e-01 0.0000000000000000e+00  9.4254171178917634e-01 -6.5291283504458134e-02 0.0000000000000000e+00  9.4366874885137353e-01 -1.8631033747844203e-01 0.0000000000000000e+00  1.5886100091430262e+00 -2.8178585280247898e-01 0.0000000000000000e+00  2.0201735165333634e+00 -5.2926240253038181e-01 0.0000000000000000e+00  9.2116234692742327e-01 -1.0189718864328130e-01 0.0000000000000000e+00  6.9754574220421417e-01 -6.8826038648222121e-02 0.0000000000000000e+00  0.0000000000000000e+00 0.0000000000000000e+00 0.0000000000000000e+00  0.0000000000000000e+00 0.0000000000000000e+00 0.0000000000000000e+00  1.8993512032523474e-02 -3.1331380647284711e-02 0.0000000000000000e+00  7.9820028256087439e-01 1.2520922714145716e-01 0.0000000000000000e+00  1.3277905273296724e+00 -3.2945314576115281e-01 0.0000000000000000e+00  2.5625806777758037e-01 -5.1117180419843855e-01 0.0000000000000000e+00  1.4106689060916622e+00 -7.1307765241058974e-02 0.0000000000000000e+00  5.7636716924254605e-01 -2.3656523448471134e-02 0.0000000000000000e+00  1.0701735720902035e+00 -1.3150452194894122e-01 0.0000000000000000e+00  1.0805596514963871e+00 -1.0044611843484750e+00 0.0000000000000000e+00  1.2280741618392117e+00 -1.6320143319471014e-01 0.0000000000000000e+00  1.2629330834281334e+00 -2.4034296621940532e-01 0.0000000000000000e+00  -4.4573714406450242e-02 -5.5300469333456156e-02 0.0000000000000000e+00  0.0000000000000000e+00 0.0000000000000000e+00 0.0000000000000000e+00  1.6573893349447590e+00 -2.6164272860926480e-01 0.0000000000000000e+00  1.8753392621577176e+00 -2.7386145860901556e-01 0.0000000000000000e+00  0.0000000000000000e+00 0.0000000000000000e+00 0.0000000000000000e+00  5.8695629446229580e-01 -6.6839084263778589e-02 0.0000000000000000e+00  7.4599767389586347e-01 3.7420242734543652e-01 0.0000000000000000e+00  1.7196402645930968e+00 -2.1005701421142242e-01 0.0000000000000000e+00  1.6958155185750754e+00 -1.3251470875613736e-01 0.0000000000000000e+00  1.8639067471179849e+00 -2.0382856813114522e-01 0.0000000000000000e+00  1.4778775438567948e+00 -1.9112898376655821e-01 0.0000000000000000e+00  1.9935463158983486e+00 -2.1979644982695781e-01 0.0000000000000000e+00  0.0000000000000000e+00 0.0000000000000000e+00 0.0000000000000000e+00  0.0000000000000000e+00 0.0000000000000000e+00 0.0000000000000000e+00  2.0009854580921775e+00 -2.9548997824246809e-01 0.0000000000000000e+00  0.0000000000000000e+00 0.0000000000000000e+00 0.0000000000000000e+00  5.9037040330755830e-01 2.1187474614668014e-01 0.0000000000000000e+00  2.0001972914771171e+00 -6.8149863332839311e-01 0.0000000000000000e+00  1.0290257352153125e+00 -1.6832022366395713e-01 0.0000000000000000e+00  0.0000000000000000e+00 0.0000000000000000e+00 0.0000000000000000e+00  3.5240578180584969e-01 -2.4569366011503370e-02 0.0000000000000000e+00  1.4867953965874650e+00 -5.1190488166165199e-02 0.0000000000000000e+00  1.3982420931823287e+00 -8.4527521459935986e-02 0.0000000000000000e+00  1.3556821830480930e+00 -4.8354610335555026e-01 0.0000000000000000e+00  6.2854548220669071e-01 -2.6856577048588332e-01 0.0000000000000000e+00  1.9327332767791272e+00 -7.2431379672548590e-01 0.0000000000000000e+00  1.2959751979947232e+00 -3.9184995911862947e-01 0.0000000000000000e+00  9.6137577267914098e-01 2.9559353837451569e-01 0.0000000000000000e+00  6.6148142817304800e-01 -3.6120883651099604e-02 0.0000000000000000e+00  1.4639774370852714e+00 -3.3032907690638236e-01 0.0000000000000000e+00  1.9070751926068223e+00 -5.7564275457335856e-01 0.0000000000000000e+00  1.5305841113748309e+00 -1.4706515180407770e-01 0.0000000000000000e+00  1.9331846895372167e+00 -5.7761129342912887e-01 0.0000000000000000e+00  1.1629603769568662e+00 -2.3879828305303649e-01 0.0000000000000000e+00  1.1258415005799065e+00 -1.8827704286831179e-01 0.0000000000000000e+00  </DataArray> 
</PointData> 
</Piece>
</UnstructuredGrid>
</VTKFile>