<?xml version="1.0"?>
<VTKFile type="UnstructuredGrid"  version="0.1"  >
<UnstructuredGrid>
<Piece  NumberOfPoints="194" NumberOfCells="336">
<Points>
<DataArray  type="Float64"  NumberOfComponents="3"  format="ascii">0.4207607463097617 0.19 0  0.4201487168029707 0.1999966199048527 0  0.4261685417851465 0.196409292431739 0  0.4145905603061963 0.1961819304479011 0  0.4207607463087888 0.21 0  0.4145905603063645 0.2038180695522843 0  0.4262598344738712 0.2036568242185335 0  0.446899804139621 0.1999999999998389 0  0.4394315019025246 0.1970915826863714 0  0.4394608940728603 0.2040870543693135 0  0.3946216884789568 0.2000000000001512 0  0.4020059614928624 0.203547899597858 0  0.4019979587101454 0.1959834479682427 0  0.4618364086138087 0.1999999999998546 0  0.4543681063767183 0.1970915826863795 0  0.4543681063761134 0.2040749161535186 0  0.476773013087985 0.1999999999998713 0  0.4693047108508938 0.1970915826863783 0  0.4693047108503577 0.2040749161535231 0  0.3871533862418661 0.2029084173136212 0  0.3871533862424271 0.1959250838464788 0  0.4089549580935208 0.1998691686391595 0  0.4322718174608562 0.200127451265745 0  0.4581022574952563 0.19 0  0.4506339552581777 0.19 0  0.3983558395975142 0.21 0  0.4058241418345938 0.21 0  0.4431656530210671 0.19 0  0.4356973507839815 0.19 0  0.4132924440726327 0.19 0  0.4132924440716992 0.21 0  0.4282290485468779 0.19 0  0.4468998041387391 0.2056971942287257 0  0.3946216884797873 0.1943028057712679 0  0.4618364086130068 0.2056971942287359 0  0.4767730130872753 0.2056971942287455 0  0.4842413153245942 0.2040749161535287 0  0.4319631996644724 0.205697194228716 0  0.4282290485459029 0.21 0  0.4090477820585017 0.1944069323162114 0  0.4655705597323621 0.19 0  0.4618364086138088 0.1943028057711072 0  0.3908875373604028 0.21 0  0.3946216884789569 0.2056971942288966 0  0.446899804139621 0.194302805771098 0  0.4322275012857285 0.1945847121082109 0  0.409279320968396 0.2055930218740123 0  0.4655705597315852 0.21 0  0.4730388619686996 0.21 0  0.4506339552573136 0.21 0  0.4581022574944306 0.21 0  0.4058241418354857 0.19 0  0.3983558395983636 0.19 0  0.4356973507830418 0.21 0  0.4431656530201649 0.21 0  0.480507164205851 0.21 0  0.3908875373612097 0.19 0  0.5022733717445609 0.2484520140959261 0  0.5039200503329727 0.2634569969024956 0  0.4870587955368383 0.2511092200731516 0  0.4619845553363554 0.2471559623297018 0  0.4744155700740079 0.2566595549135983 0  0.4718174066442032 0.2448602332187449 0  0.401463131821351 0.2240614152536154 0  0.4020899907160548 0.2165302463955136 0  0.3946216884789568 0.2158195727016258 0  0.4319631996644723 0.2259854221051505 0  0.4420138570927455 0.2303582032589531 0  0.4274409436629797 0.2358490737568498 0  0.5166834276845828 0.2571581640138182 0  0.5183393333239584 0.2464065549333135 0  0.4421897352483806 0.3061937447056332 0  0.418091171977014 0.3243162836372635 0  0.412607471649106 0.2990503898016255 0  0.4787056372270673 0.2371901345199761 0  0.4898985359610427 0.2395108277223441 0  0.4302139512950107 0.2879708289588951 0  0.3909674209965625 0.2226356941037057 0  0.4852224147682477 0.2693506158480865 0  0.4679743527986476 0.2938700081288894 0  0.4504932786869968 0.2799586344600427 0  0.4333214399877798 0.2707568063501644 0  0.4117097904773068 0.2792362674983541 0  0.4219952157594144 0.2615029378934271 0  0.3938502830802056 0.3095497484347601 0  0.3641563190507836 0.3179653487982807 0  0.3934922780344484 0.3350540779420794 0  0.4687683012296924 0.2234572950360006 0  0.4652183412607249 0.234253800772318 0  0.4767526104577227 0.2273866629412239 0  0.4707920865830447 0.3486070579413962 0  0.5084674509460629 0.3444400826937225 0  0.4787676469414335 0.3785383868246253 0  0.4391642236404037 0.2185040792853546 0  0.3754967205959606 0.2925860795314694 0  0.4626056464247933 0.2175583716511612 0  0.4543958902951323 0.217783002687627 0  0.4618276563023947 0.226295708468006 0  0.4601355054144107 0.2625386919569297 0  0.4713424846317688 0.2745508899070743 0  0.4166532952113353 0.2316189381631693 0  0.4140433986437475 0.2417572010675891 0  0.4537654266604936 0.2283937178128906 0  0.4470337295051696 0.2214450572771946 0  0.5084573036363184 0.2395108277223441 0  0.4091898654769304 0.2539103800220315 0  0.4020607667170538 0.2413000663289324 0  0.3933451459320382 0.2499378971246431 0  0.4468857282753376 0.2152350613820568 0  0.3871533862426517 0.1622083790690482 0  0.4004709881341373 0.156587601801244 0  0.383930166391577 0.149077512173999 0  0.4319982050913569 0.1813492122870563 0  0.4386378054355863 0.2427664002734886 0  0.4895894057788134 0.3280526958589806 0  0.398571556794488 0.2667712515333163 0  0.3871536388992142 0.2768042805511501 0  0.398267784857306 0.2897726550924405 0  0.3871533862418662 0.2377916209307866 0  0.3951819405974831 0.2310626528016624 0  0.5173146390988945 0.3796900489573174 0  0.424428444001246 0.2176032464898874 0  0.4319631996644723 0.2156279113565238 0  0.5380469068795991 0.270190988877121 0  0.5292128724209423 0.2936972872082567 0  0.5209430201332119 0.2710369260536757 0  0.507058739830649 0.2805607505285516 0  0.4767730130872752 0.2184019876485795 0  0.4904006859619667 0.3067892894525832 0  0.4892189727163938 0.2873772533228455 0  0.4192410422903348 0.3546402176185522 0  0.4444416418673275 0.3371826323410143 0  0.4460062899873121 0.3720706817615101 0  0.4676405937283705 0.3189200602945363 0  0.4510553949639345 0.2400598894424664 0  0.4244157537195716 0.2482530512201678 0  0.3717783033973493 0.3492929215517201 0  0.4095582929531458 0.2174316143878764 0  0.4105467584982695 0.2658772111092724 0  0.448875629425473 0.2527683700708778 0  0.3766159229561977 0.3830577447225878 0  0.4149595575946646 0.3834673183778856 0  0.3949496524092438 0.3601144457090416 0  0.3436434970543172 0.3743236175823911 0  0.4065987454210035 0.2329337197796252 0  0.4095582929540822 0.1690366057399949 0  0.3975186920292402 0.1660535232065472 0  0.4096953638692593 0.1593611747926069 0  0.4357040734592776 0.2558482019948566 0  0.4020899907169248 0.1826726487248222 0  0.4215978938789503 0.1660535232066034 0  0.4170265951911974 0.1826726487248186 0  0.4102372344314323 0.2256491670083618 0  0.4470091562036288 0.18256890171664 0  0.4617258870090093 0.1826555625495994 0  0.3871183818181629 0.1813492091082587 0  0.3946170212231889 0.1837683952945248 0  0.4236090047368721 0.2262216159300549 0  0.4244995648184416 0.1837683957183748 0  0.5299710643811397 0.2566376774421922 0  0.4394315019025247 0.1834818376483804 0  0.4993542269391089 0.2308107468212473 0  0.4869999746943883 0.2308048359320609 0  0.4169851174148118 0.2217509578443784 0  0.512571303534115 0.315294881441146 0  0.5114371803269665 0.2974349400710795 0  0.4693357546089872 0.2160476853278769 0  0.4841984187204001 0.2159109988582109 0  0.4398548996890094 0.1761054820336394 0  0.3946216884797873 0.1755365127550408 0  0.431963199665431 0.1622083790702696 0  0.4200158654557485 0.1549967047228304 0  0.4244948974283196 0.1755365127551117 0  0.4895008759292634 0.41 0  0.4433053055145528 0.41 0  0.4095582929540587 0.1783322890925096 0  0.402719283013572 0.174362078603009 0  0.4163973028945601 0.1743620786030245 0  0.3870163828938027 0.1711802904735331 0  0.5373680609412221 0.41 0  0.4319720988215174 0.1712601408791398 0  0.4997232129797319 0.2393335372925151 0  0.3987229542475914 0.41 0  0.3556974926297398 0.41 0  0.4846260107628763 0.2228898464509046 0  0.4476321386943704 0.1742462878721009 0  0.4460825720969575 0.2652057710885948 0  0.4170265951902442 0.2149173540338034 0  0.442117717086971 0.1672874945454806 0  0.4095582929540592 0.1849109489303113 0  0.4543663130808365 0.1848930798107721 0  0.3868315570898186 0.2161590584307608 0  0.454355826198406 0.1783191038782875 0  0.544963993717515 0.2555062458890662 0  </DataArray>
</Points>
<Cells>
<DataArray  type="UInt32"  Name="connectivity"  format="ascii">0 1 2  0 1 3  4 1 5  4 1 6  7 8 9  10 11 12  13 14 15  16 17 18  13 17 18  10 19 20  7 14 15  21 11 12  22 8 9  23 24 14  25 26 11  27 28 8  0 29 3  30 4 5  31 0 2  7 9 32  10 12 33  13 15 34  16 18 35  16 36 35  13 18 34  10 20 33  7 15 32  22 9 37  4 38 6  21 12 39  40 17 41  42 19 43  24 14 44  23 14 41  25 11 43  10 11 43  13 14 41  13 17 41  10 19 43  7 14 44  27 8 44  7 8 44  28 8 45  22 8 45  26 11 46  21 11 46  47 48 18  49 50 15  51 52 12  53 54 9  22 2 6  1 2 6  55 36 35  48 18 35  47 18 34  56 20 33  50 15 34  52 12 33  49 15 32  54 9 32  53 9 37  1 5 3  21 5 3  51 12 39  22 6 37  29 51 39  26 30 46  48 55 35  50 47 34  52 56 33  54 49 32  38 53 37  40 23 41  42 25 43  24 27 44  28 31 45  38 6 37  31 2 45  22 2 45  29 3 39  30 5 46  21 5 46  21 3 39  57 58 59  60 61 62  63 64 65  66 67 68  57 69 70  71 72 73  74 75 59  71 76 73  63 77 65  78 58 59  71 79 80  81 82 83  84 85 86  87 88 89  74 59 62  90 91 92  53 54 93  84 85 94  95 96 97  71 76 80  81 82 76  98 61 99  100 68 101  102 103 96  98 60 61  57 104 70  105 106 107  54 93 108  109 110 111  28 31 112  113 67 68  90 91 114  103 93 67  105 115 107  57 69 58  102 96 97  116 115 117  118 106 119  102 103 67  91 120 92  66 121 122  78 61 99  123 124 125  126 78 58  82 115 117  74 88 89  50 47 95  48 55 127  128 79 129  130 131 132  116 94 117  128 79 133  102 88 134  113 135 68  136 85 86  84 72 73  63 137 64  66 93 67  81 76 80  71 79 133  126 124 125  102 67 134  82 83 138  98 60 139  90 131 132  135 68 101  140 141 142  84 72 86  126 78 129  130 72 86  118 106 107  71 72 131  136 143 140  63 119 144  61 59 62  63 77 119  26 30 137  4 38 121  113 139 134  130 72 131  145 146 147  106 119 144  113 135 148  51 52 149  145 150 147  0 29 151  63 137 152  24 27 153  40 23 154  84 94 117  78 61 59  56 155 156  66 121 157  31 112 158  69 125 159  60 139 134  28 112 160  161 75 162  105 135 101  60 88 134  100 163 152  100 163 157  128 164 114  109 110 146  50 95 96  126 124 165  103 93 108  71 133 131  90 133 131  47 95 166  48 127 166  55 127 167  100 68 157  79 129 99  66 93 122  168 153 160  169 149 156  66 68 157  105 135 83  170 171 150  98 80 99  172 151 158  78 129 99  173 174 92  113 67 134  49 50 96  105 106 101  145 175 176  174 132 92  145 175 177  113 139 148  123 125 159  25 26 64  145 176 146  90 133 114  169 155 178  53 93 122  52 56 156  110 146 147  31 0 158  145 177 150  82 115 138  27 28 160  74 75 162  179 173 120  91 164 114  171 150 147  168 112 180  172 112 180  26 137 64  161 75 181  74 89 162  47 48 166  161 104 181  135 83 148  182 183 140  169 149 176  100 101 144  130 86 142  82 76 73  74 88 62  69 159 70  52 149 156  184 89 162  172 151 177  0 151 158  168 153 185  183 143 140  130 141 142  169 146 178  139 148 186  27 153 160  38 121 122  182 140 141  30 137 187  4 121 187  168 188 180  69 58 125  172 150 180  51 149 189  168 112 160  169 155 156  29 151 189  126 129 165  81 83 148  98 80 186  81 148 186  24 153 190  23 154 190  81 80 186  42 25 65  174 182 141  172 112 158  87 88 97  38 53 122  25 64 65  170 188 180  109 146 178  173 120 92  79 80 99  136 140 142  128 133 114  128 129 165  87 95 166  87 127 166  184 127 167  49 96 108  100 152 144  170 150 180  102 88 97  42 191 65  169 176 146  60 88 62  98 139 186  106 101 144  172 177 150  30 4 187  163 137 152  175 149 176  163 121 157  175 151 177  90 132 92  163 137 187  163 121 187  29 51 189  103 96 108  23 24 190  57 75 181  57 104 181  168 185 188  54 49 108  126 58 125  192 153 185  87 95 97  175 149 189  175 151 189  87 127 89  184 127 89  128 164 165  124 164 165  57 75 59  192 153 190  192 154 190  105 115 138  130 132 141  82 73 117  123 193 159  77 191 65  63 152 144  136 86 142  84 73 117  174 132 141  105 83 138  </DataArray>
<DataArray  type="UInt32"  Name="offsets"  format="ascii">3 6 9 12 15 18 21 24 27 30 33 36 39 42 45 48 51 54 57 60 63 66 69 72 75 78 81 84 87 90 93 96 99 102 105 108 111 114 117 120 123 126 129 132 135 138 141 144 147 150 153 156 159 162 165 168 171 174 177 180 183 186 189 192 195 198 201 204 207 210 213 216 219 222 225 228 231 234 237 240 243 246 249 252 255 258 261 264 267 270 273 276 279 282 285 288 291 294 297 300 303 306 309 312 315 318 321 324 327 330 333 336 339 342 345 348 351 354 357 360 363 366 369 372 375 378 381 384 387 390 393 396 399 402 405 408 411 414 417 420 423 426 429 432 435 438 441 444 447 450 453 456 459 462 465 468 471 474 477 480 483 486 489 492 495 498 501 504 507 510 513 516 519 522 525 528 531 534 537 540 543 546 549 552 555 558 561 564 567 570 573 576 579 582 585 588 591 594 597 600 603 606 609 612 615 618 621 624 627 630 633 636 639 642 645 648 651 654 657 660 663 666 669 672 675 678 681 684 687 690 693 696 699 702 705 708 711 714 717 720 723 726 729 732 735 738 741 744 747 750 753 756 759 762 765 768 771 774 777 780 783 786 789 792 795 798 801 804 807 810 813 816 819 822 825 828 831 834 837 840 843 846 849 852 855 858 861 864 867 870 873 876 879 882 885 888 891 894 897 900 903 906 909 912 915 918 921 924 927 930 933 936 939 942 945 948 951 954 957 960 963 966 969 972 975 978 981 984 987 990 993 996 999 1002 1005 1008 </DataArray>
<DataArray  type="UInt8"  Name="types"  format="ascii">5 5 5 5 5 5 5 5 5 5 5 5 5 5 5 5 5 5 5 5 5 5 5 5 5 5 5 5 5 5 5 5 5 5 5 5 5 5 5 5 5 5 5 5 5 5 5 5 5 5 5 5 5 5 5 5 5 5 5 5 5 5 5 5 5 5 5 5 5 5 5 5 5 5 5 5 5 5 5 5 5 5 5 5 5 5 5 5 5 5 5 5 5 5 5 5 5 5 5 5 5 5 5 5 5 5 5 5 5 5 5 5 5 5 5 5 5 5 5 5 5 5 5 5 5 5 5 5 5 5 5 5 5 5 5 5 5 5 5 5 5 5 5 5 5 5 5 5 5 5 5 5 5 5 5 5 5 5 5 5 5 5 5 5 5 5 5 5 5 5 5 5 5 5 5 5 5 5 5 5 5 5 5 5 5 5 5 5 5 5 5 5 5 5 5 5 5 5 5 5 5 5 5 5 5 5 5 5 5 5 5 5 5 5 5 5 5 5 5 5 5 5 5 5 5 5 5 5 5 5 5 5 5 5 5 5 5 5 5 5 5 5 5 5 5 5 5 5 5 5 5 5 5 5 5 5 5 5 5 5 5 5 5 5 5 5 5 5 5 5 5 5 5 5 5 5 5 5 5 5 5 5 5 5 5 5 5 5 5 5 5 5 5 5 5 5 5 5 5 5 5 5 5 5 5 5 5 5 5 5 5 5 5 5 5 5 5 5 5 5 5 5 5 5 5 5 5 5 5 5 5 5 5 5 5 5 </DataArray>
</Cells>
<PointData  Vectors="f_43-0"> 
<DataArray  type="Float64"  Name="f_43-0"  NumberOfComponents="3" format="ascii">2.3491418812702654e-05 1.4342503651995535e-03 0.0000000000000000e+00  -1.1082152426213074e-04 1.4372497467160308e-03 0.0000000000000000e+00  -6.4114049068701037e-05 1.5151892845793322e-03 0.0000000000000000e+00  -5.7906191572419153e-05 1.3571941925917580e-03 0.0000000000000000e+00  -2.4657241454439775e-04 1.4572459778590420e-03 0.0000000000000000e+00  -1.6044793703745076e-04 1.3662936365613464e-03 0.0000000000000000e+00  -1.6188896915864039e-04 1.5244909696647219e-03 0.0000000000000000e+00  -1.1566769984161789e-04 1.8000327246248129e-03 0.0000000000000000e+00  -7.5872488854966661e-05 1.6962852918050630e-03 0.0000000000000000e+00  -1.6998211190867886e-04 1.7037965664482521e-03 0.0000000000000000e+00  -1.0070422107665849e-04 1.0933583606572591e-03 0.0000000000000000e+00  -1.5118575178982489e-04 1.1963521966493408e-03 0.0000000000000000e+00  -5.1086745512610384e-05 1.1866464724996733e-03 0.0000000000000000e+00  -1.1578034785900489e-04 1.9993521044573410e-03 0.0000000000000000e+00  -7.7299799333246965e-05 1.8973969572740213e-03 0.0000000000000000e+00  -1.7021407166415952e-04 1.9037732087457298e-03 0.0000000000000000e+00  -1.1424040174655514e-04 2.1951625941983625e-03 0.0000000000000000e+00  -7.7146496412007010e-05 2.0952788403527864e-03 0.0000000000000000e+00  -1.6863623555599179e-04 2.1009932799575920e-03 0.0000000000000000e+00  -1.3404249740722228e-04 9.9945756141267181e-04 0.0000000000000000e+00  -4.4706948918763778e-05 9.9009646639484786e-04 0.0000000000000000e+00  -1.0530801342672854e-04 1.2851736383127236e-03 0.0000000000000000e+00  -1.1551518565466996e-04 1.6023108645763632e-03 0.0000000000000000e+00  1.6262087253251287e-05 1.9404748378468338e-03 0.0000000000000000e+00  1.7246084154956364e-05 1.8403764095753974e-03 0.0000000000000000e+00  -2.3489039233137905e-04 1.1567493244925868e-03 0.0000000000000000e+00  -2.3977262426357450e-04 1.2561617485661244e-03 0.0000000000000000e+00  1.8518414006938657e-05 1.7395199012165408e-03 0.0000000000000000e+00  2.0019426151264724e-05 1.6380715782372450e-03 0.0000000000000000e+00  2.5352798774776182e-05 1.3324552358737771e-03 0.0000000000000000e+00  -2.4365606735108318e-04 1.3564644292624996e-03 0.0000000000000000e+00  2.1705425492433109e-05 1.5362206811084468e-03 0.0000000000000000e+00  -1.9208257434031478e-04 1.8054414701740584e-03 0.0000000000000000e+00  -2.6469907049781761e-05 1.0861842118066285e-03 0.0000000000000000e+00  -1.9113771644611039e-04 2.0041585106541646e-03 0.0000000000000000e+00  -1.8834743653202058e-04 2.1994546614981158e-03 0.0000000000000000e+00  -1.6545755899858146e-04 2.2946462841427618e-03 0.0000000000000000e+00  -1.9074209471477084e-04 1.6040624928148188e-03 0.0000000000000000e+00  -2.4860679218186038e-04 1.5581757653513762e-03 0.0000000000000000e+00  -3.2470659516621585e-05 1.2798742168369116e-03 0.0000000000000000e+00  1.5594852271249600e-05 2.0397223415300242e-03 0.0000000000000000e+00  -4.0690482867423826e-05 1.9942533007103239e-03 0.0000000000000000e+00  -2.2899811975899659e-04 1.0586364886432784e-03 0.0000000000000000e+00  -1.7523745229647720e-04 1.1011758205573881e-03 0.0000000000000000e+00  -3.9551098983665219e-05 1.7944151118799571e-03 0.0000000000000000e+00  -4.0896870964687744e-05 1.5957540286880650e-03 0.0000000000000000e+00  -1.8212467702880214e-04 1.2967334561356869e-03 0.0000000000000000e+00  -2.4747475377570328e-04 2.0566348764416791e-03 0.0000000000000000e+00  -2.4556146768429888e-04 2.1540832955466707e-03 0.0000000000000000e+00  -2.4986216057531124e-04 1.8592159099082473e-03 0.0000000000000000e+00  -2.4893961700680068e-04 1.9583302488476759e-03 0.0000000000000000e+00  2.7185834948201373e-05 1.2311851304695621e-03 0.0000000000000000e+00  2.8917333654993917e-05 1.1308585002371447e-03 0.0000000000000000e+00  -2.4977595518500757e-04 1.6589763413548785e-03 0.0000000000000000e+00  -2.5017183289726037e-04 1.7593839100031126e-03 0.0000000000000000e+00  -2.4326540390349837e-04 2.2506653846378118e-03 0.0000000000000000e+00  3.0487070916697656e-05 1.0319155628915923e-03 0.0000000000000000e+00  9.5832665635747305e-01 -8.8334813105583679e-02 0.0000000000000000e+00  1.2578462903308187e+00 -1.0724009692020861e-01 0.0000000000000000e+00  9.8833167060556693e-01 -1.0442140729156789e-01 0.0000000000000000e+00  8.2739054080745889e-01 -1.1190695753722575e-01 0.0000000000000000e+00  1.0945560819035784e+00 -1.2461237237019029e-01 0.0000000000000000e+00  7.9601575128545610e-01 -9.9220757619830818e-02 0.0000000000000000e+00  3.3203027520463134e-02 -2.9150269528235559e-02 0.0000000000000000e+00  -2.6343994158078400e-02 -6.5292444966552465e-03 0.0000000000000000e+00  -4.2253402177623342e-02 -4.6364238446435493e-03 0.0000000000000000e+00  1.8567683779713159e-01 -3.9276098839595680e-02 0.0000000000000000e+00  3.1886909083553133e-01 -5.6509515123717241e-02 0.0000000000000000e+00  3.8958820481818401e-01 -8.1771830925769395e-02 0.0000000000000000e+00  1.1599270898258802e+00 -9.2432333660523197e-02 0.0000000000000000e+00  9.4572831380634592e-01 -7.4473312348413534e-02 0.0000000000000000e+00  1.5088419160641193e+00 -1.2874989723600017e-01 0.0000000000000000e+00  1.4538147383660758e+00 -1.1225891107523879e-01 0.0000000000000000e+00  1.5744930396245924e+00 -1.4964342960934121e-01 0.0000000000000000e+00  6.2425055705999688e-01 -7.0799332659920999e-02 0.0000000000000000e+00  7.1688535499942307e-01 -7.3090285171281522e-02 0.0000000000000000e+00  1.5394160974460107e+00 -1.6100021649280313e-01 0.0000000000000000e+00  -2.0217907103446890e-02 -2.2082479693975917e-02 0.0000000000000000e+00  1.3405335030703784e+00 -1.2631340641993286e-01 0.0000000000000000e+00  1.5044906268276761e+00 -1.2699595190816962e-01 0.0000000000000000e+00  1.4706028982074881e+00 -1.5517760078346568e-01 0.0000000000000000e+00  1.3533249839770880e+00 -1.7049366493648632e-01 0.0000000000000000e+00  1.4942713891243273e+00 -1.7962858368945162e-01 0.0000000000000000e+00  1.1293602021074673e+00 -1.6800290146327787e-01 0.0000000000000000e+00  1.5723245538674262e+00 -1.3435702959404497e-01 0.0000000000000000e+00  1.5690764636817895e+00 -1.0664047606635225e-01 0.0000000000000000e+00  1.4142847484623042e+00 -9.7197758840254819e-02 0.0000000000000000e+00  2.7440299496726561e-01 -2.5289913267227713e-02 0.0000000000000000e+00  5.0422904777693933e-01 -6.6132308193425901e-02 0.0000000000000000e+00  3.8802713364951064e-01 -3.7158597934373865e-02 0.0000000000000000e+00  1.2264921407486513e+00 -6.6959862476300133e-02 0.0000000000000000e+00  1.2219180897947572e+00 -5.4142969850289442e-02 0.0000000000000000e+00  8.1241017427767470e-01 -2.3992022785971102e-02 0.0000000000000000e+00  8.8233657517974351e-02 -1.2038054972338072e-02 0.0000000000000000e+00  1.6407889016117589e+00 -1.5613682343757879e-01 0.0000000000000000e+00  1.3647491855196503e-01 -8.3309427622792181e-03 0.0000000000000000e+00  1.1947754782167504e-01 -9.3904075680715030e-03 0.0000000000000000e+00  3.0988506030196544e-01 -3.6730231012699503e-02 0.0000000000000000e+00  1.2062528540723816e+00 -1.4414173433312016e-01 0.0000000000000000e+00  1.4054429286889523e+00 -1.3836457271640448e-01 0.0000000000000000e+00  2.3757379202656734e-01 -6.2839083991106326e-02 0.0000000000000000e+00  4.9833535252668260e-01 -1.0713571052375631e-01 0.0000000000000000e+00  3.2381557435172093e-01 -4.6416734430351124e-02 0.0000000000000000e+00  1.6048863178182324e-01 -2.1065426369437177e-02 0.0000000000000000e+00  7.6924930376161682e-01 -6.3363445398459575e-02 0.0000000000000000e+00  8.6879039748671960e-01 -1.5228975940116968e-01 0.0000000000000000e+00  4.3221061639375563e-01 -1.0211746276185807e-01 0.0000000000000000e+00  6.7796342043484925e-01 -1.3434867222856389e-01 0.0000000000000000e+00  6.1964301913466337e-02 -3.8497192544938463e-03 0.0000000000000000e+00  2.9199487166408705e-01 8.5886737590642137e-02 0.0000000000000000e+00  5.2048614137950577e-01 1.1618718497059245e-01 0.0000000000000000e+00  7.0705830335574194e-01 1.4042833260298701e-01 0.0000000000000000e+00  8.4454503727771330e-02 1.6046948962302628e-02 0.0000000000000000e+00  6.2684981545696394e-01 -1.0813837580147637e-01 0.0000000000000000e+00  1.3507255313282087e+00 -7.7741708317699304e-02 0.0000000000000000e+00  1.2414472782470212e+00 -1.8086727984694131e-01 0.0000000000000000e+00  1.4701687115719271e+00 -1.8211998072043220e-01 0.0000000000000000e+00  1.5914236500216807e+00 -1.6670543572330285e-01 0.0000000000000000e+00  2.6429529530940482e-01 -8.0400590460356705e-02 0.0000000000000000e+00  1.3176482087875843e-01 -5.5249519059072966e-02 0.0000000000000000e+00  7.4380861850121649e-01 -1.4064403178954292e-02 0.0000000000000000e+00  3.5723150827586078e-02 -9.7269887568676872e-03 0.0000000000000000e+00  3.5231213108798932e-02 -5.0268093354495259e-03 0.0000000000000000e+00  1.3533329155611440e+00 -8.5991235484114137e-02 0.0000000000000000e+00  1.4516901648919192e+00 -8.1619217807489305e-02 0.0000000000000000e+00  1.3628531385028053e+00 -9.6742332008928553e-02 0.0000000000000000e+00  1.4395031474005175e+00 -1.0507110112691186e-01 0.0000000000000000e+00  1.8904013556338450e-01 -9.3069919879030655e-03 0.0000000000000000e+00  1.4527978627699092e+00 -9.6924438463108650e-02 0.0000000000000000e+00  1.4761811666949867e+00 -1.1493660614032566e-01 0.0000000000000000e+00  1.2326756497001674e+00 -7.4225071265174219e-02 0.0000000000000000e+00  1.3378714841573423e+00 -8.9028854506747940e-02 0.0000000000000000e+00  9.7937416242482744e-01 -4.4226059104323999e-02 0.0000000000000000e+00  1.4228846763138943e+00 -9.8844663610994726e-02 0.0000000000000000e+00  5.9887474209368763e-01 -9.3714583681303407e-02 0.0000000000000000e+00  7.3878269848931566e-01 -1.3175663620497666e-01 0.0000000000000000e+00  1.3295881786810897e+00 -7.4483294826820784e-02 0.0000000000000000e+00  -4.9495989177278359e-03 -8.9333395733977861e-03 0.0000000000000000e+00  1.2295409631205656e+00 -1.7727956603461359e-01 0.0000000000000000e+00  9.4514784878691294e-01 -1.3522793407311182e-01 0.0000000000000000e+00  8.8980233376840367e-01 -3.1194279215188588e-02 0.0000000000000000e+00  8.0650062883022589e-01 -3.0612309512362216e-02 0.0000000000000000e+00  1.2085369217807480e+00 -6.8978244748178916e-02 0.0000000000000000e+00  1.0942072013393409e+00 -4.3142459507028247e-02 0.0000000000000000e+00  2.2389625081481659e-01 -6.6797666983782769e-02 0.0000000000000000e+00  2.1686816247377783e-01 6.3124308631785878e-02 0.0000000000000000e+00  2.3506102307326782e-01 7.3290589252105312e-02 0.0000000000000000e+00  4.7473290192348316e-01 1.0610758660633172e-01 0.0000000000000000e+00  9.9902622664487328e-01 -1.5005402981918609e-01 0.0000000000000000e+00  -1.1733416370495875e-02 1.1105648507516733e-02 0.0000000000000000e+00  3.4169147759989055e-01 7.7337285523165294e-02 0.0000000000000000e+00  2.6855331857244764e-02 1.2015034401644359e-02 0.0000000000000000e+00  9.1086263836308537e-02 -3.6682887786323518e-02 0.0000000000000000e+00  1.0785364299832773e-01 1.2386083049121510e-02 0.0000000000000000e+00  1.4285850428262531e-01 1.1598524633051412e-02 0.0000000000000000e+00  -4.3880297907839573e-02 1.2739038064154504e-02 0.0000000000000000e+00  -3.2315962628607878e-02 8.0141446566353962e-03 0.0000000000000000e+00  1.5551110917305902e-01 -4.0133847603914578e-02 0.0000000000000000e+00  3.5599724602506627e-02 9.5811834977504243e-03 0.0000000000000000e+00  1.1641688188371726e+00 -8.3312856712112277e-02 0.0000000000000000e+00  7.4788585171321031e-02 1.0295279013421149e-02 0.0000000000000000e+00  5.4157966411688907e-01 -4.1638016701278265e-02 0.0000000000000000e+00  5.0159507537031534e-01 -4.5849805141326902e-02 0.0000000000000000e+00  5.9009303122795530e-02 -2.2624862375711860e-02 0.0000000000000000e+00  1.3980327925112981e+00 -7.5758978133632887e-02 0.0000000000000000e+00  1.4597949517365660e+00 -9.0328838534048106e-02 0.0000000000000000e+00  1.2180890204341768e-01 -4.5740800682914579e-03 0.0000000000000000e+00  1.4719030848850029e-01 -3.5006626369852582e-03 0.0000000000000000e+00  1.9847389877874880e-01 3.3948307679701542e-02 0.0000000000000000e+00  3.3039548739869938e-02 3.2749051986018747e-02 0.0000000000000000e+00  4.8721245585490019e-01 9.2721092512371900e-02 0.0000000000000000e+00  6.4906937586964375e-01 1.2355988268449092e-01 0.0000000000000000e+00  1.4934181852272724e-01 3.6767151068410629e-02 0.0000000000000000e+00  0.0000000000000000e+00 0.0000000000000000e+00 0.0000000000000000e+00  0.0000000000000000e+00 0.0000000000000000e+00 0.0000000000000000e+00  5.0027366536569792e-02 2.5155098974203784e-02 0.0000000000000000e+00  8.2384668816392934e-02 3.9154925581646266e-02 0.0000000000000000e+00  1.3761073732036935e-01 4.1014976573304739e-02 0.0000000000000000e+00  7.5982252716848983e-02 4.7222439362563581e-02 0.0000000000000000e+00  0.0000000000000000e+00 0.0000000000000000e+00 0.0000000000000000e+00  2.6476863751266005e-01 5.4272726554123275e-02 0.0000000000000000e+00  7.4136070507758700e-01 -6.7246137916086302e-02 0.0000000000000000e+00  0.0000000000000000e+00 0.0000000000000000e+00 0.0000000000000000e+00  0.0000000000000000e+00 0.0000000000000000e+00 0.0000000000000000e+00  3.1231273937875692e-01 -2.0712862452680267e-02 0.0000000000000000e+00  2.6530103391597176e-01 4.0204812440524942e-02 0.0000000000000000e+00  1.2501885158151198e+00 -1.5820095987850674e-01 0.0000000000000000e+00  -2.5040060767433036e-04 -3.5719501739511759e-03 0.0000000000000000e+00  3.9886247522215129e-01 6.9430011789572768e-02 0.0000000000000000e+00  -4.4065232970412153e-03 6.5975413127183202e-03 0.0000000000000000e+00  8.4680770503421945e-02 7.0828102073280724e-03 0.0000000000000000e+00  -5.7199111185725127e-02 -4.8238346295312795e-03 0.0000000000000000e+00  2.0751907749335891e-01 2.4709590681662716e-02 0.0000000000000000e+00  1.1600105952145092e+00 -7.5379028055025929e-02 0.0000000000000000e+00  </DataArray> 
</PointData> 
</Piece>
</UnstructuredGrid>
</VTKFile>