<?xml version="1.0"?>
<VTKFile type="UnstructuredGrid"  version="0.1"  >
<UnstructuredGrid>
<Piece  NumberOfPoints="194" NumberOfCells="339">
<Points>
<DataArray  type="Float64"  NumberOfComponents="3"  format="ascii">0.0534241021414831 0.2075428856341382 0  0.07538638723190919 0.1915913195394167 0  0.06726459509928774 0.2147740778951952 0  0.2286913662688903 0.3133959500822503 0  0.2457579136251883 0.3036253283210157 0  0.2370120387482942 0.3305347050441392 0  0.1133943915886014 0.3302098901172357 0  0.1085927601152855 0.3576703429582752 0  0.1291050229147523 0.3369598757086243 0  0.1876570762350594 0.2701429686523801 0  0.1759534499456636 0.268744809012302 0  0.1862475166430347 0.2806184243256064 0  0.04799687037553593 0.1900185470502504 0  0.1704873609912336 0.2583583661241701 0  0.1801707401936674 0.2578452677740249 0  0 0.3514285714286952 0  0.03215830272795324 0.3311110896359255 0  0.02400550655420258 0.3538155845945724 0  0.2004289920815778 0.2885787263743592 0  0.2083656065158181 0.2774025780460683 0  0.2175887234644184 0.2860477873464338 0  0.1123698019379044 0.2058991360802581 0  0.09638298985168356 0.2000713960717276 0  0.09921229729781815 0.216694589313852 0  0.1987596795720009 0.2706417532988148 0  0 0.3221428571430699 0  0.1022962111550141 0.273832470550381 0  0.1121786756446853 0.257597694764058 0  0.1185619469878228 0.2730177051871591 0  0.05939492550527375 0.3149957962361826 0  0.03411173555592004 0.3013214948275056 0  0.1949745518995776 0.2497468076502398 0  0.202315810036185 0.2499463414463592 0  0.1988936168129591 0.2591743361304991 0  0.1503920612246686 0.252658552798053 0  0.1407371787724462 0.2442700623456801 0  0.1431093770171943 0.2599228455937608 0  0.09191660917863548 0.3399083220637153 0  0.1291780217515827 0.2400382025520897 0  0.1325512871714925 0.2548933203634119 0  0.1613699074131162 0.2874965309748423 0  0.1497954449456231 0.3068853213507886 0  0.1704962809759384 0.2989815459796012 0  0.1273239957535623 0.41 0  0.1550887940203835 0.3759695678273732 0  0.1305531867707806 0.3723894882772687 0  0.2328041563607919 0.2914013345123573 0  0.2145757352600842 0.3012314566270872 0  0.06140001986584975 0.41 0  0.08484979611354741 0.3801877867628078 0  0.05922009696123734 0.3774661510110062 0  0.1314207338941352 0.2277905748945162 0  0.1208839583881551 0.2181173442085023 0  0.1226326835593179 0.232510509637589 0  0.2199699516855607 0.2730509421907208 0  0.2088779690661671 0.2650057074514391 0  0.2335552553807713 0.3548019770067952 0  0.216380800632318 0.3798697230577418 0  0.2537725505472335 0.3777585525832137 0  0.09377624077128965 0.41 0  0.09380266644077194 0.2576101652245613 0  0.1712191068054211 0.2792458170307043 0  0.1315669208937715 0.2153401624373302 0  0.08319468457824891 0.2132940804249223 0  0.05506284017382649 0.2425906156552861 0  0.03234799839792719 0.2322323714096635 0  0.03317213267821684 0.2576605437337542 0  0.0655461589766832 0.3354809920423228 0  0.132972307375135 0.2702075053542861 0  0.1310410255455362 0.2846992571580754 0  0.05202618668915951 0.3533574174069209 0  0.0341778808147269 0.3756898840960821 0  0.1452227811648972 0.2894657338151946 0  0.1427902997716637 0.232150825925387 0  0.1544083940701868 0.2357510323977007 0  0.1491192377089382 0.242360482241113 0  0.2548303845886413 0.3306565522725438 0  0.1851735785078722 0.2631071774152569 0  0.1547844879126531 0.221343792228163 0  0.1440834152269613 0.2215292013094449 0  0.1502092543645781 0.2281484929999839 0  0.1620856860352591 0.41 0  0.1654256928847844 0.3451700819208795 0  0.1447999649086052 0.3470007664317952 0  0.2460936211071839 0.2733779098999782 0  0.250265698216607 0.2591459325753045 0  0.2578547799253117 0.2736699879086193 0  0 0.3807142857143437 0  0.2403498351518432 0.2646826079825986 0  0.1362495245357279 0.2216212078679356 0  0.2199894283484474 0.2630314844485698 0  0.1307646098417589 0.3010050716147269 0  0.128782395741745 0.3539195748014988 0  0 0.2050000000005308 0  0.02618711892167316 0.1853857958188918 0  0.03021129466766341 0.2085417214687756 0  0.1571318226843289 0.245420672996831 0  0.1664692005849321 0.2475709156417281 0  0.1604617194638936 0.2557893928243108 0  0.1110093235748128 0.3847859225763507 0  0.1550656232429279 0.2649227029563504 0  0.1583987151778488 0.2277368545647528 0  0.1629104300036858 0.2335315343742052 0  0.05222303834057849 0.2265528286728498 0  0.1099554730833504 0.2189591019945387 0  0.04764878584873936 0.2783518915062873 0  0.02152627632804056 0.2799148982921386 0  0.1682222986671726 0.2386028198193036 0  0.1742197252833576 0.2428413052501257 0  0 0.29285714285744 0  0.01744870257335064 0.3130375866803607 0  0.1666231880877755 0.3117643555727803 0  0.1841090525772461 0.3084299065503739 0  0.1776920932687694 0.3258630445439892 0  0.2234150974215506 0.2441784247426195 0  0.2296339016331197 0.2402719738031125 0  0.2306200006656481 0.2483744735801409 0  0.08173043279897278 0.3240331352477369 0  0.1154525741111949 0.2885583797282378 0  0.1230762637185412 0.2499754423532209 0  0.1759665552266909 0.3607453311538497 0  0.1917080515020064 0.3413476842478615 0  0.09198816075892419 0.2415871005044956 0  0.07716692921624396 0.2463138536171241 0  0.1461228744239319 0.2700598172698123 0  0.2096071079201568 0.2490683551528932 0  0.2166911463435495 0.2471317900544655 0  0.2155707468285289 0.2556953171569842 0  0.2354281840915826 0.41 0  0.1892742072748776 0.2564561470775296 0  0 0.2635714285718054 0  0.2069640661720074 0.2559705483641431 0  0.1752851331147261 0.2508158313127855 0  0.0844877739943079 0.2754278344382655 0  0.1985922711404066 0.3216774874340058 0  0.217902467256 0.3335522763450835 0  0.07558403699563009 0.2617898205222132 0  0.1957380535525476 0.3607047222935699 0  0.1837099792663048 0.3830312172891498 0  0.114265829400523 0.2274814703880861 0  0.0206009415950734 0.3930565358299628 0  0.07847443385504081 0.3566824448208936 0  0.01618611334675497 0.2427628432417809 0  0.2370670604668411 0.2561437100875122 0  0.2254320944728471 0.256276132616746 0  0.07646641941334627 0.2901165423065792 0  0.09694893303991545 0.2918649843860019 0  0.08032811137534199 0.3068839858890652 0  0.09752865082683917 0.3073326190116618 0  0.1877417105384929 0.2484740584176516 0  0.1608308335189591 0.3262714997547831 0  0.2122294664542327 0.3536582770139244 0  0.2000381356635816 0.3047271648646204 0  0.1031728984437735 0.2318497950763309 0  0.05856578271688782 0.295628513006081 0  0.1647287152160364 0.2637534120846467 0  0.1125187550934686 0.3075252986550676 0  0.09922070399794995 0.322662239561371 0  0.1618784257508376 0.2400587086087321 0  0.05876177350501315 0.2607579702960333 0  0.1358250422386446 0.2356584720209315 0  0.2294756118369428 0.2628646849955408 0  0.1239298454268555 0.2616776157580057 0  0.04263766443679855 0.3932630345153014 0  0.1147948284867253 0.2412597685036574 0  0.1807733240458683 0.2461555514727623 0  0.245890675076073 0.2871394349824882 0  0.2220625618530342 0.2502300158941232 0  0.1441725906822958 0.3262643694130186 0  0.1771221153651656 0.2877467988749257 0  0.07392371664175142 0.2310989703896346 0  0.09023810730875097 0.2272487027068034 0  0.1981052433265003 0.41 0  0.2520678298491301 0.3496835930425019 0  0.1416315037575542 0.2787693322658609 0  0.2741016576310038 0.41 0  0.2747137483983895 0.3519826740290966 0  0.2337109879526324 0.2717726746338737 0  0.1298722944302657 0.3189004895954476 0  0.1827267976827431 0.2517822297587077 0  0.1632849702488283 0.2726003915760372 0  0.01505266539966814 0.2227442931166357 0  0.2129990509249649 0.3158541689725088 0  0.1865831931948131 0.2944379361003471 0  0.1028747054530789 0.2468430767368829 0  0.2803555148413351 0.3762695151888899 0  0.1528547616279626 0.2778511520150422 0  0 0.41 0  0.03015443760436654 0.41 0  0.1921250322631934 0.2639147861870621 0  0 0.2342857142861561 0  0.2282286223197668 0.2809381514776019 0  0.06676399188859611 0.2764140668439541 0  0.2375747325401397 0.2803566777819222 0  </DataArray>
</Points>
<Cells>
<DataArray  type="UInt32"  Name="connectivity"  format="ascii">0 1 2  3 4 5  6 7 8  9 10 11  0 1 12  13 14 10  15 16 17  18 19 20  21 22 23  18 19 24  15 25 16  26 27 28  29 16 30  31 32 33  34 35 36  37 6 7  38 39 35  40 41 42  18 24 11  43 44 45  3 46 47  18 47 20  48 49 50  51 52 53  54 55 19  56 57 58  59 48 49  26 27 60  10 11 61  62 51 52  63 1 2  64 65 66  29 16 67  68 28 69  70 71 17  72 40 41  70 16 17  73 74 75  76 4 5  14 10 77  39 35 36  78 79 80  81 43 44  82 44 83  84 85 86  63 22 1  87 71 17  70 16 67  84 85 88  73 79 89  54 55 90  91 72 69  92 7 8  93 94 95  96 97 98  59 49 99  34 36 100  101 102 74  64 65 103  21 23 104  105 30 106  107 108 97  13 97 98  109 30 106  73 74 80  109 30 110  68 39 36  34 96 98  105 66 106  111 112 113  114 115 116  37 117 67  25 16 110  92 83 45  26 118 28  63 22 23  38 39 119  73 51 89  82 120 121  122 60 123  9 24 11  73 35 75  82 113 121  68 124 36  125 126 127  87 15 17  128 57 58  31 33 129  46 47 20  70 71 50  44 83 45  130 66 106  111 41 42  91 72 41  32 33 131  13 97 132  55 127 90  26 60 133  134 135 121  136 60 123  137 57 138  139 52 53  136 60 133  87 71 140  34 98 100  37 67 141  130 66 142  3 46 4  143 144 116  101 74 80  118 28 69  145 146 147  82 44 120  91 118 69  148 146 147  149 31 129  73 79 80  124 36 100  108 97 132  111 41 150  43 59 99  135 151 121  18 47 152  134 112 113  139 153 104  26 118 146  0 95 103  55 19 24  105 30 154  111 112 42  13 10 155  148 156 157  102 74 158  64 66 159  29 30 154  145 146 133  78 101 80  107 97 158  81 44 138  73 51 160  54 90 161  43 99 45  62 51 89  68 39 162  6 156 157  54 19 20  48 50 163  38 164 53  108 165 132  38 164 119  34 96 75  13 14 132  84 166 86  73 35 160  26 146 133  114 116 167  105 66 159  168 41 150  65 95 103  137 120 121  55 33 24  169 11 61  137 57 151  63 170 171  91 118 156  23 153 104  125 127 131  128 172 57  56 58 173  126 127 167  68 124 174  136 123 159  175 128 58  122 170 171  56 57 151  176 58 173  49 99 7  9 10 77  49 7 141  54 177 161  37 6 157  55 127 131  172 81 138  91 41 178  64 123 159  149 129 179  139 164 153  180 10 155  93 95 181  6 156 178  143 88 161  37 7 141  139 164 53  172 57 138  32 125 131  168 41 178  34 35 75  165 132 179  63 23 171  3 135 182  143 144 161  122 170 123  38 51 160  109 130 106  91 156 178  137 151 121  112 42 183  96 74 158  55 33 131  134 112 152  96 97 158  47 152 182  16 30 110  169 42 183  25 109 110  38 35 160  27 164 119  134 135 182  3 47 182  63 170 2  64 170 103  27 164 184  143 85 88  176 58 185  176 76 173  134 152 182  118 146 156  145 154 147  46 4 166  14 132 179  64 170 123  144 116 167  96 74 75  180 40 61  3 135 5  180 40 186  177 88 161  27 60 184  170 2 103  65 66 142  29 154 147  144 127 167  180 186 100  76 5 173  14 129 179  137 138 120  38 51 53  168 150 83  124 186 100  68 28 162  175 58 185  0 95 12  70 67 141  70 50 141  144 127 90  92 7 45  187 188 140  33 24 189  187 87 140  148 146 156  148 117 147  56 5 173  44 138 120  111 113 150  130 190 142  54 20 191  54 177 191  39 119 162  148 117 157  48 188 163  23 153 171  68 69 174  27 28 162  190 93 181  82 150 83  145 154 192  49 50 141  18 152 183  102 107 158  13 98 155  94 95 12  29 117 147  84 177 88  56 135 5  99 7 45  169 40 61  134 113 121  126 114 167  46 20 191  82 113 150  65 142 181  164 153 184  72 40 186  180 10 61  122 60 184  124 186 174  37 117 157  29 117 67  9 24 189  72 69 174  165 149 179  169 40 42  27 119 162  112 152 183  105 154 192  144 90 161  21 52 104  71 163 140  190 142 181  122 153 171  33 129 189  188 163 140  84 177 193  14 129 77  122 153 184  56 135 151  46 166 193  72 186 174  71 50 163  84 166 193  139 52 104  0 2 103  65 95 181  46 191 193  145 133 192  136 159 192  18 11 183  169 11 183  98 100 155  180 100 155  168 178 8  168 83 8  136 133 192  177 191 193  105 159 192  129 189 77  6 178 8  9 189 77  92 83 8  </DataArray>
<DataArray  type="UInt32"  Name="offsets"  format="ascii">3 6 9 12 15 18 21 24 27 30 33 36 39 42 45 48 51 54 57 60 63 66 69 72 75 78 81 84 87 90 93 96 99 102 105 108 111 114 117 120 123 126 129 132 135 138 141 144 147 150 153 156 159 162 165 168 171 174 177 180 183 186 189 192 195 198 201 204 207 210 213 216 219 222 225 228 231 234 237 240 243 246 249 252 255 258 261 264 267 270 273 276 279 282 285 288 291 294 297 300 303 306 309 312 315 318 321 324 327 330 333 336 339 342 345 348 351 354 357 360 363 366 369 372 375 378 381 384 387 390 393 396 399 402 405 408 411 414 417 420 423 426 429 432 435 438 441 444 447 450 453 456 459 462 465 468 471 474 477 480 483 486 489 492 495 498 501 504 507 510 513 516 519 522 525 528 531 534 537 540 543 546 549 552 555 558 561 564 567 570 573 576 579 582 585 588 591 594 597 600 603 606 609 612 615 618 621 624 627 630 633 636 639 642 645 648 651 654 657 660 663 666 669 672 675 678 681 684 687 690 693 696 699 702 705 708 711 714 717 720 723 726 729 732 735 738 741 744 747 750 753 756 759 762 765 768 771 774 777 780 783 786 789 792 795 798 801 804 807 810 813 816 819 822 825 828 831 834 837 840 843 846 849 852 855 858 861 864 867 870 873 876 879 882 885 888 891 894 897 900 903 906 909 912 915 918 921 924 927 930 933 936 939 942 945 948 951 954 957 960 963 966 969 972 975 978 981 984 987 990 993 996 999 1002 1005 1008 1011 1014 1017 </DataArray>
<DataArray  type="UInt8"  Name="types"  format="ascii">5 5 5 5 5 5 5 5 5 5 5 5 5 5 5 5 5 5 5 5 5 5 5 5 5 5 5 5 5 5 5 5 5 5 5 5 5 5 5 5 5 5 5 5 5 5 5 5 5 5 5 5 5 5 5 5 5 5 5 5 5 5 5 5 5 5 5 5 5 5 5 5 5 5 5 5 5 5 5 5 5 5 5 5 5 5 5 5 5 5 5 5 5 5 5 5 5 5 5 5 5 5 5 5 5 5 5 5 5 5 5 5 5 5 5 5 5 5 5 5 5 5 5 5 5 5 5 5 5 5 5 5 5 5 5 5 5 5 5 5 5 5 5 5 5 5 5 5 5 5 5 5 5 5 5 5 5 5 5 5 5 5 5 5 5 5 5 5 5 5 5 5 5 5 5 5 5 5 5 5 5 5 5 5 5 5 5 5 5 5 5 5 5 5 5 5 5 5 5 5 5 5 5 5 5 5 5 5 5 5 5 5 5 5 5 5 5 5 5 5 5 5 5 5 5 5 5 5 5 5 5 5 5 5 5 5 5 5 5 5 5 5 5 5 5 5 5 5 5 5 5 5 5 5 5 5 5 5 5 5 5 5 5 5 5 5 5 5 5 5 5 5 5 5 5 5 5 5 5 5 5 5 5 5 5 5 5 5 5 5 5 5 5 5 5 5 5 5 5 5 5 5 5 5 5 5 5 5 5 5 5 5 5 5 5 5 5 5 5 5 5 5 5 5 5 5 5 5 5 5 5 5 5 5 5 5 5 5 5 </DataArray>
</Cells>
<PointData  Vectors="f_43-0"> 
<DataArray  type="Float64"  Name="f_43-0"  NumberOfComponents="3" format="ascii">1.4253688237819333e+00 1.6494017172518641e-02 0.0000000000000000e+00  1.3418060589617522e+00 -4.6623315738839294e-02 0.0000000000000000e+00  1.3758229301058560e+00 5.5260070527182598e-02 0.0000000000000000e+00  1.7809802528636700e+00 2.4621842970988767e-01 0.0000000000000000e+00  1.9081185942225862e+00 2.1460827503479640e-01 0.0000000000000000e+00  1.6269532780573168e+00 1.7798295313314852e-01 0.0000000000000000e+00  1.1069796125666798e+00 2.3638636911913824e-01 0.0000000000000000e+00  8.3290384693766528e-01 1.3825427073097801e-01 0.0000000000000000e+00  1.1106650736215395e+00 2.3743952096750318e-01 0.0000000000000000e+00  2.0079725094962022e+00 6.7314527913465461e-01 0.0000000000000000e+00  1.8761705003307709e+00 7.7623688624988663e-01 0.0000000000000000e+00  1.8999002243478649e+00 5.8935442009095429e-01 0.0000000000000000e+00  1.4363256671306315e+00 -2.8271891466831612e-02 0.0000000000000000e+00  1.8087249145860871e+00 9.5930459702719628e-01 0.0000000000000000e+00  1.8520445611964751e+00 8.2258706137195647e-01 0.0000000000000000e+00  7.3469387754972615e-01 0.0000000000000000e+00 0.0000000000000000e+00  9.4300726907644927e-01 6.1019603457219726e-02 0.0000000000000000e+00  7.1577896243839645e-01 3.0134359374923165e-02 0.0000000000000000e+00  1.9145136563372542e+00 4.5101065726583528e-01 0.0000000000000000e+00  2.0209556776389790e+00 4.4397748974103374e-01 0.0000000000000000e+00  2.0044809502460685e+00 3.6541254656529160e-01 0.0000000000000000e+00  1.0204975876627944e+00 6.8482682326854602e-02 0.0000000000000000e+00  1.1901625480726963e+00 -5.3595276904519918e-03 0.0000000000000000e+00  1.1947819336910941e+00 1.4117251046752360e-01 0.0000000000000000e+00  2.0301472387670101e+00 5.4222779389560649e-01 0.0000000000000000e+00  1.0102040816308739e+00 0.0000000000000000e+00 0.0000000000000000e+00  1.3295289297435244e+00 3.5250943508256360e-01 0.0000000000000000e+00  1.3092221952076906e+00 4.2888108458059077e-01 0.0000000000000000e+00  1.3583194264045422e+00 4.5879108572384819e-01 0.0000000000000000e+00  1.0997566006536104e+00 1.3563696293543742e-01 0.0000000000000000e+00  1.1745034881213325e+00 8.0058022109635071e-02 0.0000000000000000e+00  0.0000000000000000e+00 0.0000000000000000e+00 0.0000000000000000e+00  0.0000000000000000e+00 0.0000000000000000e+00 0.0000000000000000e+00  1.3723397502102266e+00 2.9486818989487046e-01 0.0000000000000000e+00  1.4313132658952257e+00 9.0413933420092318e-01 0.0000000000000000e+00  1.2137090862429778e+00 8.0887147137071003e-01 0.0000000000000000e+00  1.4263579014173606e+00 7.4273902827297289e-01 0.0000000000000000e+00  9.6032757288851933e-01 1.6419162786509495e-01 0.0000000000000000e+00  1.1497074635292908e+00 6.0811699425462573e-01 0.0000000000000000e+00  1.3231300514237543e+00 6.4495129359729220e-01 0.0000000000000000e+00  1.6228408991771297e+00 5.7585555756621665e-01 0.0000000000000000e+00  1.4368037258043256e+00 4.1810836142275998e-01 0.0000000000000000e+00  1.6274348071703884e+00 4.8475049268636589e-01 0.0000000000000000e+00  0.0000000000000000e+00 0.0000000000000000e+00 0.0000000000000000e+00  7.8564986284433824e-01 9.6273822494002528e-02 0.0000000000000000e+00  7.3944968840929692e-01 1.0403612317154773e-01 0.0000000000000000e+00  1.9864392206810360e+00 2.8284216130306961e-01 0.0000000000000000e+00  1.8570984791378016e+00 3.3865318772912550e-01 0.0000000000000000e+00  0.0000000000000000e+00 0.0000000000000000e+00 0.0000000000000000e+00  5.0593616656779639e-01 5.3090201727422674e-02 0.0000000000000000e+00  4.8726488167085019e-01 4.2290441713441200e-02 0.0000000000000000e+00  9.4500799557959581e-01 5.6098292605573208e-01 0.0000000000000000e+00  9.6085270928121724e-01 2.9303723400370685e-01 0.0000000000000000e+00  1.0901542397332251e+00 4.7091705323489935e-01 0.0000000000000000e+00  1.9220370722698761e+00 3.1466101247884115e-01 0.0000000000000000e+00  1.6553912067543515e+00 2.9865202486416653e-01 0.0000000000000000e+00  1.3423266820421920e+00 1.1785880276674487e-01 0.0000000000000000e+00  9.5810524150178433e-01 5.7716333631711005e-02 0.0000000000000000e+00  1.0920308686040385e+00 3.5067651579451652e-02 0.0000000000000000e+00  0.0000000000000000e+00 0.0000000000000000e+00 0.0000000000000000e+00  1.3220511813749676e+00 2.9862759195659788e-01 0.0000000000000000e+00  1.7650448781288417e+00 6.5385317901208539e-01 0.0000000000000000e+00  7.4537586428252367e-01 3.7131741451636047e-01 0.0000000000000000e+00  1.2969696980712377e+00 7.0230830939839076e-02 0.0000000000000000e+00  1.4010014660091974e+00 1.1251467901307444e-01 0.0000000000000000e+00  1.4553927527891211e+00 4.6825202435328325e-02 0.0000000000000000e+00  1.3913772670423905e+00 7.1135876235576240e-02 0.0000000000000000e+00  9.4270217411462143e-01 1.2159053044174294e-01 0.0000000000000000e+00  1.4107487084250803e+00 5.7939731168279740e-01 0.0000000000000000e+00  1.4105174306520514e+00 4.8540598921275835e-01 0.0000000000000000e+00  7.4911943851933671e-01 7.1285679715848288e-02 0.0000000000000000e+00  4.7689360351123500e-01 2.6713203114756168e-02 0.0000000000000000e+00  1.4881565424829497e+00 5.1882484675188156e-01 0.0000000000000000e+00  9.4483611834889847e-01 8.5313349184068910e-01 0.0000000000000000e+00  1.0106993595374660e+00 1.1202725325116916e+00 0.0000000000000000e+00  1.2358898246682490e+00 1.0000817307889467e+00 0.0000000000000000e+00  1.6678783046271544e+00 1.3336479160199965e-01 0.0000000000000000e+00  1.9572510320094125e+00 7.3344353316509470e-01 0.0000000000000000e+00  0.0000000000000000e+00 0.0000000000000000e+00 0.0000000000000000e+00  6.0465144929311476e-01 7.4306510751528876e-01 0.0000000000000000e+00  7.3275492119432550e-01 1.0049440814748090e+00 0.0000000000000000e+00  0.0000000000000000e+00 0.0000000000000000e+00 0.0000000000000000e+00  1.1887179132215624e+00 2.2285044423048303e-01 0.0000000000000000e+00  1.0808323789395842e+00 2.1224692840524928e-01 0.0000000000000000e+00  1.6556337400052921e+00 1.5597643344431339e-01 0.0000000000000000e+00  5.5314600896118404e-01 4.1727161004363231e-02 0.0000000000000000e+00  1.5753347090534620e+00 1.1043613610716752e-01 0.0000000000000000e+00  3.9795918367274202e-01 0.0000000000000000e+00 0.0000000000000000e+00  1.0494043929036749e+00 8.4023691548663765e-02 0.0000000000000000e+00  7.6670540954459021e-01 5.7799754470002385e-01 0.0000000000000000e+00  1.1794300978676486e+00 1.3574244714273842e-01 0.0000000000000000e+00  1.3652943430394848e+00 4.0117762184649708e-01 0.0000000000000000e+00  9.4403150971383842e-01 1.7101562573482421e-01 0.0000000000000000e+00  1.5000000000000002e+00 0.0000000000000000e+00 0.0000000000000000e+00  1.4726999454905483e+00 -2.0166034415943498e-02 0.0000000000000000e+00  1.4805921697565598e+00 1.2241877624408310e-02 0.0000000000000000e+00  1.3911798914722922e+00 1.1203924680631840e+00 0.0000000000000000e+00  1.4927897408407642e+00 1.0871452954875491e+00 0.0000000000000000e+00  1.6136964918996375e+00 9.7328147283293187e-01 0.0000000000000000e+00  5.1792815392192382e-01 5.1551364591657003e-02 0.0000000000000000e+00  1.5831780460497404e+00 7.9879258206515513e-01 0.0000000000000000e+00  0.0000000000000000e+00 0.0000000000000000e+00 0.0000000000000000e+00  0.0000000000000000e+00 0.0000000000000000e+00 0.0000000000000000e+00  1.4221790790470601e+00 6.7095814727223951e-02 0.0000000000000000e+00  1.0974747230645547e+00 2.2305498070672475e-01 0.0000000000000000e+00  1.3041358577940565e+00 1.2042573267174327e-01 0.0000000000000000e+00  1.2983075504219745e+00 5.2274748440589408e-02 0.0000000000000000e+00  0.0000000000000000e+00 0.0000000000000000e+00 0.0000000000000000e+00  0.0000000000000000e+00 0.0000000000000000e+00 0.0000000000000000e+00  1.2244897959165035e+00 0.0000000000000000e+00 0.0000000000000000e+00  1.0870719641752298e+00 3.8927551573156118e-02 0.0000000000000000e+00  1.5090772908974419e+00 3.9676999713957856e-01 0.0000000000000000e+00  1.6403024414019147e+00 4.0458688721021524e-01 0.0000000000000000e+00  1.4437407481029065e+00 3.1486437402092754e-01 0.0000000000000000e+00  0.0000000000000000e+00 0.0000000000000000e+00 0.0000000000000000e+00  0.0000000000000000e+00 0.0000000000000000e+00 0.0000000000000000e+00  1.6562176449220912e-02 3.3016114135228682e-02 0.0000000000000000e+00  1.0675821908286303e+00 1.7919095326366857e-01 0.0000000000000000e+00  1.3394060082789396e+00 3.8695201939039209e-01 0.0000000000000000e+00  1.2671169390524144e+00 5.3611713362541658e-01 0.0000000000000000e+00  1.0645273939376017e+00 1.5766354330851964e-01 0.0000000000000000e+00  1.3488097379297310e+00 2.2661698522994747e-01 0.0000000000000000e+00  1.3007276733366815e+00 2.5143303788484622e-01 0.0000000000000000e+00  1.3526733505408493e+00 1.9342518220468505e-01 0.0000000000000000e+00  1.5033339868769091e+00 6.7813276242939435e-01 0.0000000000000000e+00  0.0000000000000000e+00 0.0000000000000000e+00 0.0000000000000000e+00  0.0000000000000000e+00 0.0000000000000000e+00 0.0000000000000000e+00  4.6617390332628944e-01 2.1626814046023377e-02 0.0000000000000000e+00  0.0000000000000000e+00 0.0000000000000000e+00 0.0000000000000000e+00  1.4543483556021080e+00 4.6049250415393378e-01 0.0000000000000000e+00  1.3775510204065877e+00 0.0000000000000000e+00 0.0000000000000000e+00  6.5051157593439313e-01 6.0264590623449479e-02 0.0000000000000000e+00  1.4918654210134132e+00 8.1296970732447837e-01 0.0000000000000000e+00  1.3137671976997423e+00 2.5738092610706514e-01 0.0000000000000000e+00  1.5875615637993172e+00 3.0156861229973181e-01 0.0000000000000000e+00  1.5372490382239616e+00 2.1275176874583807e-01 0.0000000000000000e+00  1.3426253020288146e+00 2.1642033857115095e-01 0.0000000000000000e+00  1.1430264659867897e+00 1.4427143181599844e-01 0.0000000000000000e+00  8.0515552143050761e-01 6.3582236233684350e-02 0.0000000000000000e+00  1.1123143168512446e+00 3.3806819143398359e-01 0.0000000000000000e+00  2.4233084788815845e-01 5.1541937809080410e-03 0.0000000000000000e+00  7.6228306137078827e-01 1.0220380287320044e-01 0.0000000000000000e+00  1.4452525240466700e+00 2.9106743941418125e-02 0.0000000000000000e+00  3.7840202201143169e-01 3.9250700598826939e-02 0.0000000000000000e+00  4.3317562093215972e-01 2.7957184258245532e-02 0.0000000000000000e+00  1.2615867263540597e+00 2.1627670274943650e-01 0.0000000000000000e+00  1.2830669356673556e+00 2.9387137860334278e-01 0.0000000000000000e+00  1.1800708198486280e+00 2.0820517442477454e-01 0.0000000000000000e+00  1.2139700342635460e+00 2.6253123618134000e-01 0.0000000000000000e+00  0.0000000000000000e+00 0.0000000000000000e+00 0.0000000000000000e+00  1.3517719999837499e+00 3.2108262578285868e-01 0.0000000000000000e+00  1.2888619343507139e+00 1.5181739576734726e-01 0.0000000000000000e+00  1.7640146250844435e+00 3.7730866562644227e-01 0.0000000000000000e+00  1.2187444675012837e+00 2.7574028601599981e-01 0.0000000000000000e+00  1.2212453863138713e+00 1.5229690248646777e-01 0.0000000000000000e+00  1.7224689932979280e+00 8.6313848865243459e-01 0.0000000000000000e+00  1.2575483526408229e+00 3.1249252444020542e-01 0.0000000000000000e+00  1.1211844980081234e+00 2.2665370152628025e-01 0.0000000000000000e+00  1.1066015602159367e+00 1.0223867846430812e+00 0.0000000000000000e+00  1.3591596900892837e+00 1.4890389171555743e-01 0.0000000000000000e+00  1.0674506450917829e+00 7.1389114196823611e-01 0.0000000000000000e+00  1.0059730198825774e+00 8.7705053596785404e-02 0.0000000000000000e+00  1.3425650371311519e+00 5.3055024495361169e-01 0.0000000000000000e+00  2.5789659233481843e-01 1.1158269383944061e-02 0.0000000000000000e+00  1.2133033516517575e+00 4.2603575686500345e-01 0.0000000000000000e+00  0.0000000000000000e+00 0.0000000000000000e+00 0.0000000000000000e+00  2.0054243329289929e+00 2.2487246612459630e-01 0.0000000000000000e+00  6.4866459562637688e-02 1.0263419255347354e-02 0.0000000000000000e+00  1.2684535807441875e+00 3.0419419293787553e-01 0.0000000000000000e+00  1.7633271537054249e+00 5.6298650180245946e-01 0.0000000000000000e+00  1.3590774399244057e+00 1.3503699896086480e-01 0.0000000000000000e+00  1.2784246224641067e+00 1.8174069039805704e-01 0.0000000000000000e+00  0.0000000000000000e+00 0.0000000000000000e+00 0.0000000000000000e+00  1.4521809564849633e+00 9.8581088689790569e-02 0.0000000000000000e+00  1.4806183300250289e+00 5.8087647149504484e-01 0.0000000000000000e+00  0.0000000000000000e+00 0.0000000000000000e+00 0.0000000000000000e+00  1.4690476222874085e+00 5.6273577512226905e-02 0.0000000000000000e+00  1.6856160349105045e+00 1.9654765589758352e-01 0.0000000000000000e+00  1.2567668588857042e+00 3.1486843680242338e-01 0.0000000000000000e+00  1.1370899839408855e+00 4.5621446924992198e-01 0.0000000000000000e+00  1.6927145025641026e+00 7.3220360907804982e-01 0.0000000000000000e+00  1.4809221250064235e+00 1.4046274611360873e-02 0.0000000000000000e+00  1.7057089946386355e+00 2.8659017169743339e-01 0.0000000000000000e+00  1.7817372072618596e+00 4.7766134837871771e-01 0.0000000000000000e+00  1.2858131132623438e+00 3.4350348206979925e-01 0.0000000000000000e+00  1.1642368457555730e+00 1.6234431726616174e-02 0.0000000000000000e+00  1.5750432389242635e+00 6.4424085957216259e-01 0.0000000000000000e+00  0.0000000000000000e+00 0.0000000000000000e+00 0.0000000000000000e+00  0.0000000000000000e+00 0.0000000000000000e+00 0.0000000000000000e+00  1.9371388793515500e+00 5.9891732747645854e-01 0.0000000000000000e+00  1.4693877551011172e+00 0.0000000000000000e+00 0.0000000000000000e+00  2.0064407521818857e+00 3.0216905360428492e-01 0.0000000000000000e+00  1.3090494167728297e+00 1.8508739195639104e-01 0.0000000000000000e+00  1.9721073566223286e+00 2.4775524649364147e-01 0.0000000000000000e+00  </DataArray> 
</PointData> 
</Piece>
</UnstructuredGrid>
</VTKFile>