<?xml version="1.0"?>
<VTKFile type="UnstructuredGrid"  version="0.1"  >
<UnstructuredGrid>
<Piece  NumberOfPoints="105" NumberOfCells="169">
<Points>
<DataArray  type="Float64"  NumberOfComponents="3"  format="ascii">0.3411792619035872 0.1007807988883264 0  0.3223547013037051 0.0811661342953541 0  0.3444094697767079 0.06991525711561337 0  0.2731077660562961 0.05508844879223635 0  0.2987388406956894 0.03154986994134981 0  0.2542757755299287 0.02753888901404131 0  0.3578728954606922 0.1299960675997348 0  0.3428550702839791 0.1207298864326248 0  0.3606088315611094 0.1037277084934985 0  0.2767628315692916 0.1210799475693868 0  0.260361447596534 0.1229759280558447 0  0.2739511166480145 0.1012903426171407 0  0.3642910294882131 0.08514217524358583 0  0.3684404229859068 0.05879875930223131 0  0.3866266297147894 0.03466711669742863 0  0.3886771468199661 0.07134613381357163 0  0.2571393426600714 0.09909224058133874 0  0.3718691980658081 0.1185113859721947 0  0.4143465137990051 0.05322961011747924 0  0.3655464778159961 0.1466879707354811 0  0.383930166391577 0.149077512173999 0  0.3750556316230105 0.1339831864103567 0  0.2981367854000865 0.1637235218245288 0  0.3103932646056649 0.1564266048246118 0  0.2950877208405285 0.1519675848591752 0  0.2473666618189879 0.1284124620716267 0  0.2591911171199197 0.1383198970354824 0  0.2490293115886795 0.1431700167801526 0  0.2607333124992295 0.173299215235651 0  0.2517589812677475 0.167282708207138 0  0.2510789311637825 0.1750218956597876 0  0.2718919859823887 0.1383852123087317 0  0.2741016576309132 0 0  0.3196154281700737 0.10148243027238 0  0.29753375939705 0.1013617902187171 0  0.3134318661301231 0.1190195115870869 0  0.2957425685352801 0.1395139256920557 0  0.294176374911891 0.1223585976984507 0  0.3100661524214186 0.1349017352953573 0  0.2599422691915476 0.1624889056516055 0  0.2437828577465094 0.1110862473067074 0  0.2400332147834255 0.1700443375285386 0  0.2352133972704371 0.1645032867342007 0  0.2437579188981839 0.1628382198077666 0  0.350756438860385 0.03770412947703979 0  0.2788297821231576 0.08311242826819275 0  0.252515959816117 0.07648796931448625 0  0.30960746080092 0.166771572284543 0  0.3556974926295285 0 0  0.2836036752964591 0.1339631263286828 0  0.2798983539554935 0.1725715317274126 0  0.2887875715604008 0.1784526411902859 0  0.2885139350435456 0.1684952536990488 0  0.3000697101066698 0.06520450816453537 0  0.2693200344911409 0.1703624615729042 0  0.3871533862426518 0.1004535961197204 0  0.3238690756099825 0.05273873904001699 0  0.2469965252529372 0.1829317073451959 0  0.2439893735792749 0.1762316384219906 0  0.2755531838498857 0.1520654843226777 0  0.2695935332846553 0.1606647427601511 0  0.2781997444103622 0.1631408916221692 0  0.3881774741414789 0.1375237980955535 0  0.3038812691128678 0.0841994561932124 0  0.387533158164613 0.1229770158841918 0  0.3024350031838242 0.1697562882658549 0  0.4121197549442807 0.08306196356607598 0  0.2372267379181886 0.156514666897516 0  0.228090483983057 0.1360461642521307 0  0.2231096629876289 0.1473860403476538 0  0.2311198366185791 0.1437551092913072 0  0.3987229542472677 0 0  0.2862543528039888 0.1579205993776223 0  0.2537568794636046 0.1534616887828778 0  0.2638326913414331 0.1507903208689992 0  0.23872107061991 0.1472714280426708 0  0.2448734012151204 0.1541363176121021 0  0.2296339016332438 0.1597280261969788 0  0.238348372815025 0.1368713418351483 0  0.2460399618407632 0.1705620587824227 0  0.3193133202755013 0.1460459073405674 0  0.3272191874237106 0.1310770977832356 0  0.3056626962672545 0.1462841663847227 0  0.2234150974217223 0.1558215752574715 0  0.2304119763419897 0.1515908441060641 0  0.3141745521465447 0 0  0.2853857357028925 0.1110828225342078 0  0.3245469487057487 0.02783302239578031 0  0.2340427519707383 0.12500661673201 0  0.2565972207468325 0.1466368372771288 0  0.2846721669765922 0.1457902303354471 0  0.3198495352051576 0.1594009174606977 0  0.247794183473202 0.05155939024503531 0  0.2507143478459989 0.1602321207261197 0  0.3298647941762166 0.154951077946048 0  0.4433053055141081 0 0  0.416528437774832 0.02576952322240761 0  0.3316683313872936 0.1433924279692641 0  0.3419037881374767 0.1376590441034941 0  0.2968565228222139 0.1734776848403526 0  0.3527566348301668 0.1449455739485435 0  0.3411001259021957 0.1498303228783227 0  0.3296083350321284 0.1156006243865368 0  0.3052148703289762 0.176135200920133 0  0.4410855102972552 0.03751680874040594 0  </DataArray>
</Points>
<Cells>
<DataArray  type="UInt32"  Name="connectivity"  format="ascii">0 1 2  3 4 5  6 7 8  9 10 11  0 12 2  13 14 15  16 10 11  17 6 8  18 14 15  19 20 21  22 23 24  25 26 27  28 29 30  26 10 31  32 4 5  0 1 33  34 35 33  36 37 38  28 29 39  34 35 37  9 10 31  16 10 40  41 42 43  13 44 2  16 45 46  22 23 47  48 44 14  36 37 49  16 45 11  50 51 52  3 53 4  28 39 54  55 17 8  34 45 11  56 44 2  0 12 8  57 58 30  0 7 8  56 53 4  25 10 40  59 60 61  62 20 21  25 26 10  34 45 63  34 33 63  55 17 64  22 47 65  35 37 38  18 66 15  42 43 67  55 12 8  68 69 70  3 45 53  13 44 14  9 49 31  48 71 14  22 72 52  73 39 74  75 27 76  9 37 49  42 77 67  3 45 46  25 27 78  59 60 74  41 43 79  55 12 15  80 81 38  59 72 61  23 24 82  50 52 61  56 1 53  77 83 84  32 85 4  22 72 24  60 39 54  73 27 76  60 39 74  55 66 15  34 11 86  50 54 61  77 67 84  80 23 82  26 74 31  85 48 87  13 12 2  83 84 69  75 27 78  72 52 61  45 53 63  75 78 70  25 40 88  26 74 89  59 72 90  29 43 79  59 74 31  1 33 63  80 23 91  48 44 87  3 46 92  3 5 92  59 90 31  1 53 63  35 81 38  73 39 93  29 39 93  56 1 2  80 38 82  13 12 15  80 94 91  19 6 21  23 47 91  71 95 96  80 94 97  62 64 21  98 81 7  72 24 90  75 67 84  22 52 99  36 49 90  80 81 97  51 52 99  60 54 61  98 6 7  68 78 70  19 6 100  56 4 87  98 81 97  49 90 31  98 6 100  94 101 97  9 37 86  75 67 76  73 27 89  17 64 21  75 84 70  43 67 76  68 78 88  29 43 93  35 81 102  58 30 79  58 41 79  34 37 86  35 33 102  17 6 21  73 74 89  22 99 65  103 47 65  56 44 87  85 4 87  36 38 82  98 101 100  36 24 90  95 104 96  9 11 86  84 69 70  43 76 93  25 78 88  29 30 79  26 27 89  0 33 102  18 14 96  81 7 102  36 24 82  18 104 96  71 14 96  73 76 93  98 101 97  103 99 65  0 7 102  </DataArray>
<DataArray  type="UInt32"  Name="offsets"  format="ascii">3 6 9 12 15 18 21 24 27 30 33 36 39 42 45 48 51 54 57 60 63 66 69 72 75 78 81 84 87 90 93 96 99 102 105 108 111 114 117 120 123 126 129 132 135 138 141 144 147 150 153 156 159 162 165 168 171 174 177 180 183 186 189 192 195 198 201 204 207 210 213 216 219 222 225 228 231 234 237 240 243 246 249 252 255 258 261 264 267 270 273 276 279 282 285 288 291 294 297 300 303 306 309 312 315 318 321 324 327 330 333 336 339 342 345 348 351 354 357 360 363 366 369 372 375 378 381 384 387 390 393 396 399 402 405 408 411 414 417 420 423 426 429 432 435 438 441 444 447 450 453 456 459 462 465 468 471 474 477 480 483 486 489 492 495 498 501 504 507 </DataArray>
<DataArray  type="UInt8"  Name="types"  format="ascii">5 5 5 5 5 5 5 5 5 5 5 5 5 5 5 5 5 5 5 5 5 5 5 5 5 5 5 5 5 5 5 5 5 5 5 5 5 5 5 5 5 5 5 5 5 5 5 5 5 5 5 5 5 5 5 5 5 5 5 5 5 5 5 5 5 5 5 5 5 5 5 5 5 5 5 5 5 5 5 5 5 5 5 5 5 5 5 5 5 5 5 5 5 5 5 5 5 5 5 5 5 5 5 5 5 5 5 5 5 5 5 5 5 5 5 5 5 5 5 5 5 5 5 5 5 5 5 5 5 5 5 5 5 5 5 5 5 5 5 5 5 5 5 5 5 5 5 5 5 5 5 5 5 5 5 5 5 5 5 5 5 5 5 5 5 5 5 5 5 </DataArray>
</Cells>
<PointData  Vectors="f_43-1"> 
<DataArray  type="Float64"  Name="f_43-1"  NumberOfComponents="3" format="ascii">9.8717228492085811e-07 7.0084056912264549e-05 0.0000000000000000e+00  8.9655514719226880e-07 4.7087351918040212e-05 0.0000000000000000e+00  2.4128272155546560e-07 4.8621459160725115e-05 0.0000000000000000e+00  6.2593160400280621e-07 1.8646010967605815e-05 0.0000000000000000e+00  2.9412126217595925e-07 1.4571531441222687e-05 0.0000000000000000e+00  2.6413034763701770e-07 7.5070451137761760e-06 0.0000000000000000e+00  1.2853597133304960e-06 1.0801040518849897e-04 0.0000000000000000e+00  1.7275998537480830e-06 8.7012211951697350e-05 0.0000000000000000e+00  2.3423920597127710e-07 8.4025688918003491e-05 0.0000000000000000e+00  2.2926470634148039e-06 3.6269650581230782e-05 0.0000000000000000e+00  1.8451226901310699e-06 2.6332450207931277e-05 0.0000000000000000e+00  1.5735411492089223e-06 3.1303482950030338e-05 0.0000000000000000e+00  -2.1421591872843151e-07 6.8790483450811512e-05 0.0000000000000000e+00  -4.2195402557749158e-07 4.7241107006605519e-05 0.0000000000000000e+00  -5.8494989785109389e-07 2.9770137803388907e-05 0.0000000000000000e+00  -1.1586788026990696e-06 6.4065948063842172e-05 0.0000000000000000e+00  1.2599005444316921e-06 2.3293439398351863e-05 0.0000000000000000e+00  -1.2813366104916779e-07 1.0609992060676400e-04 0.0000000000000000e+00  -1.6367354367985868e-06 5.0768231096310984e-05 0.0000000000000000e+00  1.4869403836307977e-06 1.3423059137809043e-04 0.0000000000000000e+00  -5.4167162691790221e-07 1.5508202654309304e-04 0.0000000000000000e+00  4.0107798378499506e-09 1.2675800533304838e-04 0.0000000000000000e+00  6.5361510425520853e-06 6.0771767558721732e-05 0.0000000000000000e+00  5.8071248723290124e-06 7.5329523346355249e-05 0.0000000000000000e+00  4.9822092146537452e-06 5.5958060374485666e-05 0.0000000000000000e+00  1.4489863426318714e-06 1.9046848854131802e-05 0.0000000000000000e+00  2.1660890347369527e-06 2.4702208338478412e-05 0.0000000000000000e+00  1.6294159666681124e-06 1.7383286422124712e-05 0.0000000000000000e+00  3.2836277963681720e-06 1.6135204102156095e-05 0.0000000000000000e+00  1.7521191629074804e-06 1.0999603866073135e-05 0.0000000000000000e+00  1.4489864572295969e-06 6.9675999281905974e-06 0.0000000000000000e+00  2.8612362093963282e-06 3.3794584747048778e-05 0.0000000000000000e+00  0.0000000000000000e+00 0.0000000000000000e+00 0.0000000000000000e+00  1.5785960699560762e-06 5.7400405045211963e-05 0.0000000000000000e+00  1.7570657410423065e-06 4.4096366797250097e-05 0.0000000000000000e+00  2.5084932737023164e-06 6.2428851801566001e-05 0.0000000000000000e+00  3.8644959860708429e-06 5.4491439729988327e-05 0.0000000000000000e+00  2.6978937332840377e-06 4.8857111343543641e-05 0.0000000000000000e+00  3.6175068020660885e-06 6.6766559457788003e-05 0.0000000000000000e+00  2.8285426635054377e-06 1.9675033305500946e-05 0.0000000000000000e+00  1.1627457137246052e-06 1.8470204235330187e-05 0.0000000000000000e+00  0.0000000000000000e+00 0.0000000000000000e+00 0.0000000000000000e+00  0.0000000000000000e+00 0.0000000000000000e+00 0.0000000000000000e+00  8.9514919980117106e-07 6.8509862544373913e-06 0.0000000000000000e+00  -6.1871767322478203e-08 2.6882540381512000e-05 0.0000000000000000e+00  1.1560212463128972e-06 2.8980140827928095e-05 0.0000000000000000e+00  8.3806464623076411e-07 1.8354337453773913e-05 0.0000000000000000e+00  7.2857851784834076e-06 7.7331994692624338e-05 0.0000000000000000e+00  0.0000000000000000e+00 0.0000000000000000e+00 0.0000000000000000e+00  3.1287532990288518e-06 4.2875861790342828e-05 0.0000000000000000e+00  6.2576091920894606e-06 3.6336692990210930e-05 0.0000000000000000e+00  8.2360859733447835e-06 4.6157902167584533e-05 0.0000000000000000e+00  6.6057870000815665e-06 4.8024377197915121e-05 0.0000000000000000e+00  7.6824576136123762e-07 3.0169150903081780e-05 0.0000000000000000e+00  4.5393491566951116e-06 2.5525125759228213e-05 0.0000000000000000e+00  -1.3081286538442114e-06 9.4033811360896139e-05 0.0000000000000000e+00  3.7536308673230648e-07 3.0856433528270551e-05 0.0000000000000000e+00  0.0000000000000000e+00 0.0000000000000000e+00 0.0000000000000000e+00  0.0000000000000000e+00 0.0000000000000000e+00 0.0000000000000000e+00  3.8624537145515628e-06 3.6003349277782296e-05 0.0000000000000000e+00  3.8862505376266265e-06 2.8855823356471500e-05 0.0000000000000000e+00  4.9983585657757270e-06 3.6916155890280546e-05 0.0000000000000000e+00  -1.2491697568925110e-06 1.4137730001358294e-04 0.0000000000000000e+00  1.1819518291187082e-06 4.0226668675244248e-05 0.0000000000000000e+00  -1.3101552401930486e-06 1.2122307077540485e-04 0.0000000000000000e+00  7.6319786476659865e-06 6.7223714517184450e-05 0.0000000000000000e+00  -2.4236393072627500e-06 8.2221484967264343e-05 0.0000000000000000e+00  6.1587501452731771e-07 5.7585182972003603e-06 0.0000000000000000e+00  7.2127973356972478e-07 9.2948992567059016e-06 0.0000000000000000e+00  3.2775300251851460e-07 3.9812245324221025e-06 0.0000000000000000e+00  6.9458024360896449e-07 8.1352408965017101e-06 0.0000000000000000e+00  0.0000000000000000e+00 0.0000000000000000e+00 0.0000000000000000e+00  5.1470807422562978e-06 4.6370750376006690e-05 0.0000000000000000e+00  2.0289623187331818e-06 1.7712885609287347e-05 0.0000000000000000e+00  2.8516617023054913e-06 2.6078341017976383e-05 0.0000000000000000e+00  9.8233237404933418e-07 1.0396634764296893e-05 0.0000000000000000e+00  1.2614543712816519e-06 1.1408843194910202e-05 0.0000000000000000e+00  0.0000000000000000e+00 0.0000000000000000e+00 0.0000000000000000e+00  1.0907562856308214e-06 1.3229713113666023e-05 0.0000000000000000e+00  7.8946654423672898e-07 4.7686494110270849e-06 0.0000000000000000e+00  4.5154200639641281e-06 8.1693894376773019e-05 0.0000000000000000e+00  3.0000946530283276e-06 8.1092085574686621e-05 0.0000000000000000e+00  4.6325161368775543e-06 6.6416958011264308e-05 0.0000000000000000e+00  0.0000000000000000e+00 0.0000000000000000e+00 0.0000000000000000e+00  4.3895153993356342e-07 4.7478482953236132e-06 0.0000000000000000e+00  0.0000000000000000e+00 0.0000000000000000e+00 0.0000000000000000e+00  2.0572219529566394e-06 3.9867033457721954e-05 0.0000000000000000e+00  1.4548578139003372e-07 1.6317771980725919e-05 0.0000000000000000e+00  9.7695626513691714e-07 1.3640821429414624e-05 0.0000000000000000e+00  2.1739833120534409e-06 2.1517902913564978e-05 0.0000000000000000e+00  3.9684030183649803e-06 4.4774105105255013e-05 0.0000000000000000e+00  6.0827119191420872e-06 8.9213656075237880e-05 0.0000000000000000e+00  5.0008144079872623e-07 1.2363183293608820e-05 0.0000000000000000e+00  1.7169797458157001e-06 1.3104107822394308e-05 0.0000000000000000e+00  5.1302763039634584e-06 1.0007555273087006e-04 0.0000000000000000e+00  0.0000000000000000e+00 0.0000000000000000e+00 0.0000000000000000e+00  -8.2428012229253817e-07 2.4145573344797196e-05 0.0000000000000000e+00  3.8352441777517534e-06 9.4058760510557890e-05 0.0000000000000000e+00  2.8174541327225964e-06 1.0041832235402336e-04 0.0000000000000000e+00  8.0082488200852855e-06 5.8973866899935035e-05 0.0000000000000000e+00  2.5812079169180536e-06 1.1875256141199771e-04 0.0000000000000000e+00  3.8996226601584540e-06 1.1018007211905597e-04 0.0000000000000000e+00  1.9793637608324135e-06 7.2906249109183039e-05 0.0000000000000000e+00  8.8730630746528662e-06 7.2075337922198162e-05 0.0000000000000000e+00  -1.6740849484534305e-06 3.6753511663805338e-05 0.0000000000000000e+00  </DataArray> 
</PointData> 
</Piece>
</UnstructuredGrid>
</VTKFile>