<?xml version="1.0"?>
<VTKFile type="UnstructuredGrid"  version="0.1"  >
<UnstructuredGrid>
<Piece  NumberOfPoints="105" NumberOfCells="169">
<Points>
<DataArray  type="Float64"  NumberOfComponents="3"  format="ascii">0.3411792619035872 0.1007807988883264 0  0.3223547013037051 0.0811661342953541 0  0.3444094697767079 0.06991525711561337 0  0.2731077660562961 0.05508844879223635 0  0.2987388406956894 0.03154986994134981 0  0.2542757755299287 0.02753888901404131 0  0.3578728954606922 0.1299960675997348 0  0.3428550702839791 0.1207298864326248 0  0.3606088315611094 0.1037277084934985 0  0.2767628315692916 0.1210799475693868 0  0.260361447596534 0.1229759280558447 0  0.2739511166480145 0.1012903426171407 0  0.3642910294882131 0.08514217524358583 0  0.3684404229859068 0.05879875930223131 0  0.3866266297147894 0.03466711669742863 0  0.3886771468199661 0.07134613381357163 0  0.2571393426600714 0.09909224058133874 0  0.3718691980658081 0.1185113859721947 0  0.4143465137990051 0.05322961011747924 0  0.3655464778159961 0.1466879707354811 0  0.383930166391577 0.149077512173999 0  0.3750556316230105 0.1339831864103567 0  0.2981367854000865 0.1637235218245288 0  0.3103932646056649 0.1564266048246118 0  0.2950877208405285 0.1519675848591752 0  0.2473666618189879 0.1284124620716267 0  0.2591911171199197 0.1383198970354824 0  0.2490293115886795 0.1431700167801526 0  0.2607333124992295 0.173299215235651 0  0.2517589812677475 0.167282708207138 0  0.2510789311637825 0.1750218956597876 0  0.2718919859823887 0.1383852123087317 0  0.2741016576309132 0 0  0.3196154281700737 0.10148243027238 0  0.29753375939705 0.1013617902187171 0  0.3134318661301231 0.1190195115870869 0  0.2957425685352801 0.1395139256920557 0  0.294176374911891 0.1223585976984507 0  0.3100661524214186 0.1349017352953573 0  0.2599422691915476 0.1624889056516055 0  0.2437828577465094 0.1110862473067074 0  0.2400332147834255 0.1700443375285386 0  0.2352133972704371 0.1645032867342007 0  0.2437579188981839 0.1628382198077666 0  0.350756438860385 0.03770412947703979 0  0.2788297821231576 0.08311242826819275 0  0.252515959816117 0.07648796931448625 0  0.30960746080092 0.166771572284543 0  0.3556974926295285 0 0  0.2836036752964591 0.1339631263286828 0  0.2798983539554935 0.1725715317274126 0  0.2887875715604008 0.1784526411902859 0  0.2885139350435456 0.1684952536990488 0  0.3000697101066698 0.06520450816453537 0  0.2693200344911409 0.1703624615729042 0  0.3871533862426518 0.1004535961197204 0  0.3238690756099825 0.05273873904001699 0  0.2469965252529372 0.1829317073451959 0  0.2439893735792749 0.1762316384219906 0  0.2755531838498857 0.1520654843226777 0  0.2695935332846553 0.1606647427601511 0  0.2781997444103622 0.1631408916221692 0  0.3881774741414789 0.1375237980955535 0  0.3038812691128678 0.0841994561932124 0  0.387533158164613 0.1229770158841918 0  0.3024350031838242 0.1697562882658549 0  0.4121197549442807 0.08306196356607598 0  0.2372267379181886 0.156514666897516 0  0.228090483983057 0.1360461642521307 0  0.2231096629876289 0.1473860403476538 0  0.2311198366185791 0.1437551092913072 0  0.3987229542472677 0 0  0.2862543528039888 0.1579205993776223 0  0.2537568794636046 0.1534616887828778 0  0.2638326913414331 0.1507903208689992 0  0.23872107061991 0.1472714280426708 0  0.2448734012151204 0.1541363176121021 0  0.2296339016332438 0.1597280261969788 0  0.238348372815025 0.1368713418351483 0  0.2460399618407632 0.1705620587824227 0  0.3193133202755013 0.1460459073405674 0  0.3272191874237106 0.1310770977832356 0  0.3056626962672545 0.1462841663847227 0  0.2234150974217223 0.1558215752574715 0  0.2304119763419897 0.1515908441060641 0  0.3141745521465447 0 0  0.2853857357028925 0.1110828225342078 0  0.3245469487057487 0.02783302239578031 0  0.2340427519707383 0.12500661673201 0  0.2565972207468325 0.1466368372771288 0  0.2846721669765922 0.1457902303354471 0  0.3198495352051576 0.1594009174606977 0  0.247794183473202 0.05155939024503531 0  0.2507143478459989 0.1602321207261197 0  0.3298647941762166 0.154951077946048 0  0.4433053055141081 0 0  0.416528437774832 0.02576952322240761 0  0.3316683313872936 0.1433924279692641 0  0.3419037881374767 0.1376590441034941 0  0.2968565228222139 0.1734776848403526 0  0.3527566348301668 0.1449455739485435 0  0.3411001259021957 0.1498303228783227 0  0.3296083350321284 0.1156006243865368 0  0.3052148703289762 0.176135200920133 0  0.4410855102972552 0.03751680874040594 0  </DataArray>
</Points>
<Cells>
<DataArray  type="UInt32"  Name="connectivity"  format="ascii">0 1 2  3 4 5  6 7 8  9 10 11  0 12 2  13 14 15  16 10 11  17 6 8  18 14 15  19 20 21  22 23 24  25 26 27  28 29 30  26 10 31  32 4 5  0 1 33  34 35 33  36 37 38  28 29 39  34 35 37  9 10 31  16 10 40  41 42 43  13 44 2  16 45 46  22 23 47  48 44 14  36 37 49  16 45 11  50 51 52  3 53 4  28 39 54  55 17 8  34 45 11  56 44 2  0 12 8  57 58 30  0 7 8  56 53 4  25 10 40  59 60 61  62 20 21  25 26 10  34 45 63  34 33 63  55 17 64  22 47 65  35 37 38  18 66 15  42 43 67  55 12 8  68 69 70  3 45 53  13 44 14  9 49 31  48 71 14  22 72 52  73 39 74  75 27 76  9 37 49  42 77 67  3 45 46  25 27 78  59 60 74  41 43 79  55 12 15  80 81 38  59 72 61  23 24 82  50 52 61  56 1 53  77 83 84  32 85 4  22 72 24  60 39 54  73 27 76  60 39 74  55 66 15  34 11 86  50 54 61  77 67 84  80 23 82  26 74 31  85 48 87  13 12 2  83 84 69  75 27 78  72 52 61  45 53 63  75 78 70  25 40 88  26 74 89  59 72 90  29 43 79  59 74 31  1 33 63  80 23 91  48 44 87  3 46 92  3 5 92  59 90 31  1 53 63  35 81 38  73 39 93  29 39 93  56 1 2  80 38 82  13 12 15  80 94 91  19 6 21  23 47 91  71 95 96  80 94 97  62 64 21  98 81 7  72 24 90  75 67 84  22 52 99  36 49 90  80 81 97  51 52 99  60 54 61  98 6 7  68 78 70  19 6 100  56 4 87  98 81 97  49 90 31  98 6 100  94 101 97  9 37 86  75 67 76  73 27 89  17 64 21  75 84 70  43 67 76  68 78 88  29 43 93  35 81 102  58 30 79  58 41 79  34 37 86  35 33 102  17 6 21  73 74 89  22 99 65  103 47 65  56 44 87  85 4 87  36 38 82  98 101 100  36 24 90  95 104 96  9 11 86  84 69 70  43 76 93  25 78 88  29 30 79  26 27 89  0 33 102  18 14 96  81 7 102  36 24 82  18 104 96  71 14 96  73 76 93  98 101 97  103 99 65  0 7 102  </DataArray>
<DataArray  type="UInt32"  Name="offsets"  format="ascii">3 6 9 12 15 18 21 24 27 30 33 36 39 42 45 48 51 54 57 60 63 66 69 72 75 78 81 84 87 90 93 96 99 102 105 108 111 114 117 120 123 126 129 132 135 138 141 144 147 150 153 156 159 162 165 168 171 174 177 180 183 186 189 192 195 198 201 204 207 210 213 216 219 222 225 228 231 234 237 240 243 246 249 252 255 258 261 264 267 270 273 276 279 282 285 288 291 294 297 300 303 306 309 312 315 318 321 324 327 330 333 336 339 342 345 348 351 354 357 360 363 366 369 372 375 378 381 384 387 390 393 396 399 402 405 408 411 414 417 420 423 426 429 432 435 438 441 444 447 450 453 456 459 462 465 468 471 474 477 480 483 486 489 492 495 498 501 504 507 </DataArray>
<DataArray  type="UInt8"  Name="types"  format="ascii">5 5 5 5 5 5 5 5 5 5 5 5 5 5 5 5 5 5 5 5 5 5 5 5 5 5 5 5 5 5 5 5 5 5 5 5 5 5 5 5 5 5 5 5 5 5 5 5 5 5 5 5 5 5 5 5 5 5 5 5 5 5 5 5 5 5 5 5 5 5 5 5 5 5 5 5 5 5 5 5 5 5 5 5 5 5 5 5 5 5 5 5 5 5 5 5 5 5 5 5 5 5 5 5 5 5 5 5 5 5 5 5 5 5 5 5 5 5 5 5 5 5 5 5 5 5 5 5 5 5 5 5 5 5 5 5 5 5 5 5 5 5 5 5 5 5 5 5 5 5 5 5 5 5 5 5 5 5 5 5 5 5 5 5 5 5 5 5 5 </DataArray>
</Cells>
<PointData  Vectors="f_43-1"> 
<DataArray  type="Float64"  Name="f_43-1"  NumberOfComponents="3" format="ascii">-3.0454727324937801e-07 2.2700142029517931e-05 0.0000000000000000e+00  -4.4711149531181098e-08 1.5332344068092483e-05 0.0000000000000000e+00  -4.8677595654848175e-07 1.3605063630152157e-05 0.0000000000000000e+00  1.6283142472359120e-07 6.5713084252044776e-06 0.0000000000000000e+00  -8.4016620839254537e-10 4.6115828732075130e-06 0.0000000000000000e+00  7.3704864675665616e-08 2.6519644150896999e-06 0.0000000000000000e+00  -6.6783628154739153e-07 3.7231635862722491e-05 0.0000000000000000e+00  -7.3673938828801994e-08 3.0835319002875844e-05 0.0000000000000000e+00  -9.7869809755781760e-07 2.4637930778861217e-05 0.0000000000000000e+00  1.0369840387717646e-06 1.5351409062923507e-05 0.0000000000000000e+00  8.7964777258856665e-07 1.1322074176881776e-05 0.0000000000000000e+00  6.2149026747637541e-07 1.2370908991098661e-05 0.0000000000000000e+00  -1.0485024975269240e-06 1.7863169705028633e-05 0.0000000000000000e+00  -8.8741405964862070e-07 1.0535770945976927e-05 0.0000000000000000e+00  -7.5695886545505573e-07 4.8938538143312824e-06 0.0000000000000000e+00  -1.5727097293012255e-06 1.2014726738856384e-05 0.0000000000000000e+00  5.2395797307666579e-07 9.2955040822002043e-06 0.0000000000000000e+00  -1.5223410681981995e-06 3.1176597837885636e-05 0.0000000000000000e+00  -1.6874899915579327e-06 5.0142485817575246e-06 0.0000000000000000e+00  -9.5095292256998688e-07 4.8814530544726591e-05 0.0000000000000000e+00  -2.5238488889020187e-06 5.0381183540413273e-05 0.0000000000000000e+00  -1.7491081885164510e-06 3.9993622085278372e-05 0.0000000000000000e+00  3.5504271747169118e-06 3.1334654666072839e-05 0.0000000000000000e+00  2.7987058929068201e-06 3.6165328405612285e-05 0.0000000000000000e+00  2.5664377620942486e-06 2.6977778552110421e-05 0.0000000000000000e+00  7.1659193855779748e-07 8.3157131987210695e-06 0.0000000000000000e+00  1.1272657302040568e-06 1.1289857866678290e-05 0.0000000000000000e+00  8.6850013648975624e-07 8.0370115908486027e-06 0.0000000000000000e+00  2.0757633668007616e-06 9.3156313358551205e-06 0.0000000000000000e+00  1.0662619049257894e-06 5.8815682254917399e-06 0.0000000000000000e+00  9.2722692004676598e-07 4.0334300822530120e-06 0.0000000000000000e+00  1.4661135849173760e-06 1.5471161811969654e-05 0.0000000000000000e+00  0.0000000000000000e+00 0.0000000000000000e+00 0.0000000000000000e+00  2.5647635044973963e-07 2.0433941329925032e-05 0.0000000000000000e+00  5.6227031433322307e-07 1.6723380801132600e-05 0.0000000000000000e+00  7.9562710717506691e-07 2.4472445251361157e-05 0.0000000000000000e+00  1.8268326546020840e-06 2.4524167673136766e-05 0.0000000000000000e+00  1.1233895670807822e-06 2.0318055105640057e-05 0.0000000000000000e+00  1.4675312029645467e-06 2.8511534113425141e-05 0.0000000000000000e+00  1.6800093292396814e-06 1.0289207091990404e-05 0.0000000000000000e+00  5.2773390967018117e-07 7.6432068355799027e-06 0.0000000000000000e+00  0.0000000000000000e+00 0.0000000000000000e+00 0.0000000000000000e+00  0.0000000000000000e+00 0.0000000000000000e+00 0.0000000000000000e+00  5.2300355902032054e-07 3.4546392396776849e-06 0.0000000000000000e+00  -3.9087413257770539e-07 6.5467709308560978e-06 0.0000000000000000e+00  3.7380130419861122e-07 1.0764831501704271e-05 0.0000000000000000e+00  3.0856002922246537e-07 6.9674516655599456e-06 0.0000000000000000e+00  3.7636538568320553e-06 3.9647118625503506e-05 0.0000000000000000e+00  0.0000000000000000e+00 0.0000000000000000e+00 0.0000000000000000e+00  1.5076118656073948e-06 1.9075247271083528e-05 0.0000000000000000e+00  3.8041519419585173e-06 2.0598964160917983e-05 0.0000000000000000e+00  5.0062670057875190e-06 2.7110578476111257e-05 0.0000000000000000e+00  3.8302079915009709e-06 2.6022233519819142e-05 0.0000000000000000e+00  1.0093689374509835e-07 1.0136596845219673e-05 0.0000000000000000e+00  2.7919444101323229e-06 1.4316742354466639e-05 0.0000000000000000e+00  -2.0788400174018609e-06 2.1445770424051218e-05 0.0000000000000000e+00  -1.6376541301283424e-07 9.1606081687636239e-06 0.0000000000000000e+00  0.0000000000000000e+00 0.0000000000000000e+00 0.0000000000000000e+00  0.0000000000000000e+00 0.0000000000000000e+00 0.0000000000000000e+00  2.1267267786543209e-06 1.7697200947752402e-05 0.0000000000000000e+00  2.2670908505525881e-06 1.4986235393460649e-05 0.0000000000000000e+00  2.9069059472895308e-06 1.9462755800902855e-05 0.0000000000000000e+00  -2.7363336673501975e-06 4.0959751809234976e-05 0.0000000000000000e+00  2.3565145812000317e-07 1.4125748230597665e-05 0.0000000000000000e+00  -2.4709993793474967e-06 3.1988529415104006e-05 0.0000000000000000e+00  4.1855775756154964e-06 3.5769906129413056e-05 0.0000000000000000e+00  -2.5989818532822231e-06 1.1047287779615489e-05 0.0000000000000000e+00  3.4208470519381143e-07 2.7440945344836291e-06 0.0000000000000000e+00  3.6013854612980236e-07 4.0510869176397800e-06 0.0000000000000000e+00  1.6745618336213500e-07 1.7611449623639934e-06 0.0000000000000000e+00  3.5942670860934031e-07 3.6414574789262203e-06 0.0000000000000000e+00  0.0000000000000000e+00 0.0000000000000000e+00 0.0000000000000000e+00  2.8440744981248646e-06 2.3443978755049978e-05 0.0000000000000000e+00  1.1449483441260227e-06 8.6676837803273732e-06 0.0000000000000000e+00  1.5850990185032741e-06 1.2708612411381544e-05 0.0000000000000000e+00  5.2565121483260094e-07 4.7941522038694473e-06 0.0000000000000000e+00  7.0644366672353780e-07 5.5014847503935532e-06 0.0000000000000000e+00  0.0000000000000000e+00 0.0000000000000000e+00 0.0000000000000000e+00  5.5698569145019674e-07 5.8805343611007117e-06 0.0000000000000000e+00  4.8512207867424782e-07 2.5721656159171258e-06 0.0000000000000000e+00  1.8279610347474515e-06 3.6116310517048358e-05 0.0000000000000000e+00  8.3882760515679702e-07 3.2293458783603675e-05 0.0000000000000000e+00  2.1552101474584826e-06 3.0416988652582606e-05 0.0000000000000000e+00  0.0000000000000000e+00 0.0000000000000000e+00 0.0000000000000000e+00  2.3340876546778349e-07 2.1711057766082260e-06 0.0000000000000000e+00  0.0000000000000000e+00 0.0000000000000000e+00 0.0000000000000000e+00  8.2414750343524928e-07 1.6055002085381616e-05 0.0000000000000000e+00  -1.2004416452107799e-07 4.6027942785155144e-06 0.0000000000000000e+00  4.7160240193688143e-07 5.8276374491946758e-06 0.0000000000000000e+00  1.1840562501677842e-06 1.0200516229225510e-05 0.0000000000000000e+00  2.0546402541646030e-06 2.1124228658395908e-05 0.0000000000000000e+00  2.7435639424557145e-06 4.2509419544394521e-05 0.0000000000000000e+00  1.6470844788135308e-07 4.5275103070846792e-06 0.0000000000000000e+00  1.0022518615259828e-06 6.6352965750381925e-06 0.0000000000000000e+00  1.9281666069770527e-06 4.5010734966796107e-05 0.0000000000000000e+00  0.0000000000000000e+00 0.0000000000000000e+00 0.0000000000000000e+00  -8.2990213039138987e-07 1.8518638974493366e-06 0.0000000000000000e+00  1.1811021822160625e-06 3.9383852074075758e-05 0.0000000000000000e+00  4.2210663042158383e-07 3.9129725926901535e-05 0.0000000000000000e+00  4.6000160797587031e-06 3.2640354196996039e-05 0.0000000000000000e+00  -1.8374836042510405e-08 4.5851916425286811e-05 0.0000000000000000e+00  9.6097909058632907e-07 4.6129554005265537e-05 0.0000000000000000e+00  2.9537915204587142e-07 2.6649583602283234e-05 0.0000000000000000e+00  4.9445519324555171e-06 3.9842112579919619e-05 0.0000000000000000e+00  -1.5205300477934930e-06 -9.3129315246146032e-08 0.0000000000000000e+00  </DataArray> 
</PointData> 
</Piece>
</UnstructuredGrid>
</VTKFile>