<?xml version="1.0"?>
<VTKFile type="UnstructuredGrid"  version="0.1"  >
<UnstructuredGrid>
<Piece  NumberOfPoints="103" NumberOfCells="166">
<Points>
<DataArray  type="Float64"  NumberOfComponents="3"  format="ascii">0.4655705597315852 0.21 0  0.4730388619686996 0.21 0  0.4693047108503577 0.2040749161535231 0  0.4618364086130068 0.2056971942287359 0  0.4581022574944306 0.21 0  0.5022733717445609 0.2484520140959261 0  0.5039200503329727 0.2634569969024956 0  0.4870587955368383 0.2511092200731516 0  0.4619845553363554 0.2471559623297018 0  0.4744155700740079 0.2566595549135983 0  0.4718174066442032 0.2448602332187449 0  0.5209814004512184 0.2362962593649592 0  0.5347760817351684 0.2414500964404198 0  0.5183393333239584 0.2464065549333135 0  0.5166834276845828 0.2571581640138182 0  0.4421897352483806 0.3061937447056332 0  0.418091171977014 0.3243162836372635 0  0.412607471649106 0.2990503898016255 0  0.4787056372270673 0.2371901345199761 0  0.4898985359610427 0.2395108277223441 0  0.4302139512950107 0.2879708289588951 0  0.5380469068795991 0.270190988877121 0  0.5593867837568711 0.2625481287604455 0  0.5487739828661812 0.2837987172973246 0  0.4852224147682477 0.2693506158480865 0  0.537795959080102 0.3217164911732622 0  0.5084674509460629 0.3444400826937225 0  0.512571303534115 0.315294881441146 0  0.4679743527986476 0.2938700081288894 0  0.4504932786869968 0.2799586344600427 0  0.4333214399877798 0.2707568063501644 0  0.4117097904773068 0.2792362674983541 0  0.4219952157594144 0.2615029378934271 0  0.3938502830802056 0.3095497484347601 0  0.3641563190507836 0.3179653487982807 0  0.3934922780344484 0.3350540779420794 0  0.4687683012296924 0.2234572950360006 0  0.4652183412607249 0.234253800772318 0  0.4767526104577227 0.2273866629412239 0  0.4707920865830447 0.3486070579413962 0  0.4787676469414335 0.3785383868246253 0  0.3754967205959606 0.2925860795314694 0  0.4626056464247933 0.2175583716511612 0  0.4543958902951323 0.217783002687627 0  0.4618276563023947 0.226295708468006 0  0.544963993717515 0.2555062458890662 0  0.4601355054144107 0.2625386919569297 0  0.4713424846317688 0.2745508899070743 0  0.5084573036363184 0.2395108277223441 0  0.5299710643811397 0.2566376774421922 0  0.541625169083316 0.3526746646055688 0  0.4386378054355863 0.2427664002734886 0  0.4420138570927455 0.2303582032589531 0  0.4274409436629797 0.2358490737568498 0  0.4895894057788134 0.3280526958589806 0  0.4537654266604936 0.2283937178128906 0  0.3871536388992142 0.2768042805511501 0  0.398571556794488 0.2667712515333163 0  0.398267784857306 0.2897726550924405 0  0.5173146390988945 0.3796900489573174 0  0.5292128724209423 0.2936972872082567 0  0.5209430201332119 0.2710369260536757 0  0.507058739830649 0.2805607505285516 0  0.4904006859619667 0.3067892894525832 0  0.4892189727163938 0.2873772533228455 0  0.4192410422903348 0.3546402176185522 0  0.4444416418673275 0.3371826323410143 0  0.4460062899873121 0.3720706817615101 0  0.4676405937283705 0.3189200602945363 0  0.4510553949639345 0.2400598894424664 0  0.4244157537195716 0.2482530512201678 0  0.3717783033973493 0.3492929215517201 0  0.5504647692515866 0.2417078359721865 0  0.4105467584982695 0.2658772111092724 0  0.5869673343225223 0.41 0  0.5770529515268702 0.3629450529032476 0  0.5527077665762991 0.3828459005111343 0  0.448875629425473 0.2527683700708778 0  0.4140433986437475 0.2417572010675891 0  0.3766159229561977 0.3830577447225878 0  0.4149595575946646 0.3834673183778856 0  0.3949496524092438 0.3601144457090416 0  0.5683897549737816 0.3290580395153129 0  0.3436434970543172 0.3743236175823911 0  0.4357040734592776 0.2558482019948566 0  0.3826544750917113 0.2574975795502557 0  0.5561563723763112 0.3041501920577169 0  0.5631143150331265 0.2366473934541688 0  0.556227780909367 0.2515606281824664 0  0.4993542269391089 0.2308107468212473 0  0.4869999746943883 0.2308048359320609 0  0.4091898654769304 0.2539103800220315 0  0.5114371803269665 0.2974349400710795 0  0.4693357546089872 0.2160476853278769 0  0.4767730130872752 0.2184019876485795 0  0.4895008759292634 0.41 0  0.4433053055145528 0.41 0  0.5373680609412221 0.41 0  0.4997232129797319 0.2393335372925151 0  0.3987229542475914 0.41 0  0.3556974926297398 0.41 0  0.4846260107628763 0.2228898464509046 0  0.4460825720969575 0.2652057710885948 0  </DataArray>
</Points>
<Cells>
<DataArray  type="UInt32"  Name="connectivity"  format="ascii">0 1 2  0 2 3  4 0 3  5 6 7  8 9 10  11 12 13  5 14 13  15 16 17  18 19 7  15 20 17  21 22 23  24 6 7  25 26 27  15 28 29  30 31 32  33 34 35  36 37 38  18 7 10  39 26 40  33 34 41  42 43 44  21 22 45  15 20 29  30 31 20  46 9 47  46 8 9  5 48 13  12 49 13  25 26 50  51 52 53  39 26 54  5 14 6  55 43 44  56 57 58  26 59 40  24 9 47  21 60 61  62 24 6  31 57 58  18 37 38  4 0 42  63 28 64  65 66 67  56 41 58  63 28 68  55 37 69  51 70 53  71 34 35  33 16 17  30 20 29  15 28 68  62 60 61  72 12 45  55 52 69  31 32 73  74 75 76  46 8 77  39 66 67  70 53 78  21 60 23  79 80 81  33 16 35  62 24 64  25 50 82  65 16 35  15 16 66  71 83 79  9 7 10  51 77 69  65 16 66  51 70 84  56 85 57  33 41 58  60 23 86  24 9 7  72 87 88  14 61 49  8 77 69  89 19 90  91 70 78  8 37 69  63 27 54  4 42 43  62 60 92  15 68 66  39 68 66  0 42 93  1 94 93  28 64 47  91 70 32  46 29 47  24 64 47  25 60 86  95 96 40  51 52 69  26 50 59  96 67 40  51 77 84  21 61 49  39 68 54  31 57 73  18 19 90  97 95 59  26 27 54  89 19 98  18 38 90  0 1 93  89 48 98  75 50 82  70 32 84  99 100 79  65 35 81  31 20 17  18 37 10  25 60 27  14 49 13  101 38 90  100 83 79  74 97 76  65 80 81  77 84 102  99 79 80  25 82 86  14 6 61  62 64 92  30 32 84  46 29 102  30 84 102  30 29 102  96 99 80  36 37 44  12 45 49  11 48 13  95 59 40  28 29 47  71 79 81  63 68 54  63 64 92  36 42 93  36 94 93  72 45 88  50 59 76  55 37 44  8 37 10  46 77 102  39 67 40  5 19 98  5 48 98  62 6 61  36 42 44  36 94 38  101 94 38  63 27 92  60 27 92  5 19 7  75 50 76  91 57 73  65 67 80  31 17 58  21 45 49  22 45 88  97 59 76  71 35 81  33 17 58  96 67 80  91 32 73  </DataArray>
<DataArray  type="UInt32"  Name="offsets"  format="ascii">3 6 9 12 15 18 21 24 27 30 33 36 39 42 45 48 51 54 57 60 63 66 69 72 75 78 81 84 87 90 93 96 99 102 105 108 111 114 117 120 123 126 129 132 135 138 141 144 147 150 153 156 159 162 165 168 171 174 177 180 183 186 189 192 195 198 201 204 207 210 213 216 219 222 225 228 231 234 237 240 243 246 249 252 255 258 261 264 267 270 273 276 279 282 285 288 291 294 297 300 303 306 309 312 315 318 321 324 327 330 333 336 339 342 345 348 351 354 357 360 363 366 369 372 375 378 381 384 387 390 393 396 399 402 405 408 411 414 417 420 423 426 429 432 435 438 441 444 447 450 453 456 459 462 465 468 471 474 477 480 483 486 489 492 495 498 </DataArray>
<DataArray  type="UInt8"  Name="types"  format="ascii">5 5 5 5 5 5 5 5 5 5 5 5 5 5 5 5 5 5 5 5 5 5 5 5 5 5 5 5 5 5 5 5 5 5 5 5 5 5 5 5 5 5 5 5 5 5 5 5 5 5 5 5 5 5 5 5 5 5 5 5 5 5 5 5 5 5 5 5 5 5 5 5 5 5 5 5 5 5 5 5 5 5 5 5 5 5 5 5 5 5 5 5 5 5 5 5 5 5 5 5 5 5 5 5 5 5 5 5 5 5 5 5 5 5 5 5 5 5 5 5 5 5 5 5 5 5 5 5 5 5 5 5 5 5 5 5 5 5 5 5 5 5 5 5 5 5 5 5 5 5 5 5 5 5 5 5 5 5 5 5 5 5 5 5 5 5 </DataArray>
</Cells>
<PointData  Vectors="f_43-1"> 
<DataArray  type="Float64"  Name="f_43-1"  NumberOfComponents="3" format="ascii">2.6046881329900299e-05 -1.5142959461093009e-04 0.0000000000000000e+00  2.6063691868874909e-05 -1.5953388635615108e-04 0.0000000000000000e+00  1.9529864385443131e-05 -1.5378186837012865e-04 0.0000000000000000e+00  2.1301330125354213e-05 -1.4614004008709847e-04 0.0000000000000000e+00  2.5964724764975781e-05 -1.4339156668578658e-04 0.0000000000000000e+00  1.8569809776196979e-05 -1.4680224076626928e-04 0.0000000000000000e+00  1.6209406443440394e-05 -1.3111441175682803e-04 0.0000000000000000e+00  1.8456753424915220e-05 -1.3324129734893221e-04 0.0000000000000000e+00  1.9173615420973152e-05 -1.1826096868762581e-04 0.0000000000000000e+00  1.7678994161925013e-05 -1.1926514733797887e-04 0.0000000000000000e+00  1.9594516401057829e-05 -1.2772066965379601e-04 0.0000000000000000e+00  1.9871410453669645e-05 -1.7568021648026964e-04 0.0000000000000000e+00  1.8276984326567252e-05 -1.7803798382580926e-04 0.0000000000000000e+00  1.8332688436157853e-05 -1.6031711823375050e-04 0.0000000000000000e+00  1.6737683299664659e-05 -1.4571548602232361e-04 0.0000000000000000e+00  1.0651057052338706e-05 -6.4946255638494041e-05 0.0000000000000000e+00  8.1844430962615777e-06 -4.5781960700047537e-05 0.0000000000000000e+00  1.0830326526571709e-05 -5.6814864415874365e-05 0.0000000000000000e+00  2.0881738794104123e-05 -1.4020158845241647e-04 0.0000000000000000e+00  2.0340778060780235e-05 -1.4713567536193872e-04 0.0000000000000000e+00  1.2665342648890445e-05 -7.0855559373517543e-05 0.0000000000000000e+00  1.3951325173491821e-05 -1.3877205510827336e-04 0.0000000000000000e+00  1.3617019722545290e-05 -1.5544217861271175e-04 0.0000000000000000e+00  1.1739289226290857e-05 -1.2382507235733165e-04 0.0000000000000000e+00  1.5686392455571505e-05 -1.1444778842563000e-04 0.0000000000000000e+00  8.0792199755632725e-06 -7.9348004130352608e-05 0.0000000000000000e+00  6.3004217371433631e-06 -5.3789827859099167e-05 0.0000000000000000e+00  9.3550033600156681e-06 -8.1069412280572521e-05 0.0000000000000000e+00  1.2396112298876181e-05 -8.4611358285727293e-05 0.0000000000000000e+00  1.4117168909624584e-05 -8.6426896290149984e-05 0.0000000000000000e+00  1.5039275555932882e-05 -8.2697525090728071e-05 0.0000000000000000e+00  1.3184823967134200e-05 -6.6084569834763522e-05 0.0000000000000000e+00  1.5971874856775257e-05 -8.0904119274186661e-05 0.0000000000000000e+00  9.0673414083224975e-06 -4.4619809529045280e-05 0.0000000000000000e+00  7.1556023090861724e-06 -3.1764328469101043e-05 0.0000000000000000e+00  6.5549494268659540e-06 -3.3561151723562451e-05 0.0000000000000000e+00  2.3406152721742021e-05 -1.4352215260222048e-04 0.0000000000000000e+00  2.1406942535732128e-05 -1.3128038113798549e-04 0.0000000000000000e+00  2.2658757267021295e-05 -1.4758301353155363e-04 0.0000000000000000e+00  6.0793196234976658e-06 -4.3801490392619717e-05 0.0000000000000000e+00  3.0437526236714199e-06 -2.2929267780542579e-05 0.0000000000000000e+00  1.0009069622597665e-05 -4.3814547675729133e-05 0.0000000000000000e+00  2.4505347744894329e-05 -1.4228510102292220e-04 0.0000000000000000e+00  2.4342980894302352e-05 -1.3387777983097377e-04 0.0000000000000000e+00  2.2827620914487218e-05 -1.3463469499334682e-04 0.0000000000000000e+00  1.5537790945296336e-05 -1.6202811050733753e-04 0.0000000000000000e+00  1.6730064826823503e-05 -1.0493094311593994e-04 0.0000000000000000e+00  1.5013811920880348e-05 -1.0200111438678127e-04 0.0000000000000000e+00  1.9850325173934628e-05 -1.6184921189042671e-04 0.0000000000000000e+00  1.6229663401398553e-05 -1.5357156766556410e-04 0.0000000000000000e+00  5.0219996222391175e-06 -4.9916561225367294e-05 0.0000000000000000e+00  1.9445327012578326e-05 -1.0329798006096011e-04 0.0000000000000000e+00  2.1681526417456092e-05 -1.1381431227141519e-04 0.0000000000000000e+00  2.0183894386804811e-05 -9.8286820040939383e-05 0.0000000000000000e+00  8.2278764495252325e-06 -6.4024617062182542e-05 0.0000000000000000e+00  2.2324840690674327e-05 -1.2563992303180012e-04 0.0000000000000000e+00  1.2323047540942163e-05 -5.4426419992015785e-05 0.0000000000000000e+00  1.4164179426999226e-05 -6.4286654388619438e-05 0.0000000000000000e+00  1.1373935551434277e-05 -5.4755934624597557e-05 0.0000000000000000e+00  2.7911892807004015e-06 -2.4856042199736185e-05 0.0000000000000000e+00  1.1407524260739399e-05 -1.0759437718650237e-04 0.0000000000000000e+00  1.4588102650904349e-05 -1.3101481033338204e-04 0.0000000000000000e+00  1.3725598538761858e-05 -1.1423702894938375e-04 0.0000000000000000e+00  1.0676883779641481e-05 -8.2528091349929987e-05 0.0000000000000000e+00  1.3139805524214072e-05 -9.9633082336594560e-05 0.0000000000000000e+00  5.1399187727767940e-06 -2.9809867709882643e-05 0.0000000000000000e+00  7.1865126576011031e-06 -4.5737027328462484e-05 0.0000000000000000e+00  3.6415918814361365e-06 -2.3830111670989368e-05 0.0000000000000000e+00  9.3384337226653922e-06 -6.5120544123107492e-05 0.0000000000000000e+00  2.0212157910209301e-05 -1.1498248744964761e-04 0.0000000000000000e+00  1.8045816343307173e-05 -8.9458584540193413e-05 0.0000000000000000e+00  4.7809527349355381e-06 -2.2950664462628323e-05 0.0000000000000000e+00  1.7159908253984205e-05 -1.8666476055567436e-04 0.0000000000000000e+00  1.4877812860481673e-05 -7.1688119029807382e-05 0.0000000000000000e+00  0.0000000000000000e+00 0.0000000000000000e+00 0.0000000000000000e+00  3.5268043436440293e-06 -4.0976486339925087e-05 0.0000000000000000e+00  2.2499931253892574e-06 -2.3379263118488485e-05 0.0000000000000000e+00  1.8084127065439396e-05 -1.0441851527695233e-04 0.0000000000000000e+00  1.8562059248404007e-05 -8.4911392409703663e-05 0.0000000000000000e+00  2.1330796139361290e-06 -1.0716901246251013e-05 0.0000000000000000e+00  2.3969347915515650e-06 -1.3897961167113957e-05 0.0000000000000000e+00  4.2958070688535528e-06 -2.2731422977697562e-05 0.0000000000000000e+00  6.4696067498624605e-06 -7.3546014367852899e-05 0.0000000000000000e+00  2.3736128489310803e-06 -1.0630406647539231e-05 0.0000000000000000e+00  1.7281416418631473e-05 -9.3170385528021214e-05 0.0000000000000000e+00  1.4351792067006319e-05 -5.8146669099121326e-05 0.0000000000000000e+00  9.2206349847321381e-06 -1.0013204136339537e-04 0.0000000000000000e+00  1.6835249138992958e-05 -2.0181125250254755e-04 0.0000000000000000e+00  1.5286927732409299e-05 -1.7231137732392026e-04 0.0000000000000000e+00  2.1652552715787369e-05 -1.6456535004767504e-04 0.0000000000000000e+00  2.1923763048630720e-05 -1.5360229552728244e-04 0.0000000000000000e+00  1.6476578915517672e-05 -7.6156760546320821e-05 0.0000000000000000e+00  1.1467051202709030e-05 -9.8382534817952085e-05 0.0000000000000000e+00  2.4843749403620728e-05 -1.5037978090685228e-04 0.0000000000000000e+00  2.4367016176935668e-05 -1.5588368657336657e-04 0.0000000000000000e+00  0.0000000000000000e+00 0.0000000000000000e+00 0.0000000000000000e+00  0.0000000000000000e+00 0.0000000000000000e+00 0.0000000000000000e+00  0.0000000000000000e+00 0.0000000000000000e+00 0.0000000000000000e+00  2.0152034159319161e-05 -1.5520298848532632e-04 0.0000000000000000e+00  0.0000000000000000e+00 0.0000000000000000e+00 0.0000000000000000e+00  0.0000000000000000e+00 0.0000000000000000e+00 0.0000000000000000e+00  2.3425042767198085e-05 -1.5936411110322325e-04 0.0000000000000000e+00  1.6135060047534606e-05 -9.4019403398171687e-05 0.0000000000000000e+00  </DataArray> 
</PointData> 
</Piece>
</UnstructuredGrid>
</VTKFile>