<?xml version="1.0"?>
<VTKFile type="UnstructuredGrid"  version="0.1"  >
<UnstructuredGrid>
<Piece  NumberOfPoints="103" NumberOfCells="170">
<Points>
<DataArray  type="Float64"  NumberOfComponents="3"  format="ascii">0.3012679105156187 0.19 0  0.3006558810093873 0.1999966199048318 0  0.2950977245127906 0.1961819304477774 0  0.301267910515333 0.21 0  0.2950977245128307 0.2038180695522663 0  0.2607803159922026 0.2000727136295815 0  0.2677053789419034 0.1964246479135325 0  0.267698176732111 0.2039977513680092 0  0.2751288526855082 0.20000000000002 0  0.2603913042767976 0.1945999920783741 0  0.2639263993299336 0.19 0  0.25 0.2 0  0.2497468076502589 0.2050254481002335 0  0.2550657455369551 0.2034088125358657 0  0.2825131256993216 0.2035478995978015 0  0.2825051229162361 0.1959834479681729 0  0.2894621222999649 0.1998691686390484 0  0.2713947015670686 0.19 0  0.2788630038040554 0.21 0  0.2863313060411479 0.21 0  0.2937996082784807 0.19 0  0.2937996082782405 0.21 0  0.2601812407614425 0.2056861609747042 0  0.2497468076502614 0.1949745518997913 0  0.2548908499171161 0.1966940311614271 0  0.2751288526855081 0.205697194228819 0  0.2751288526856362 0.1943028057711959 0  0.2895549462647731 0.1944069323160756 0  0.2564580970927985 0.19 0  0.2525889069107169 0.1926036384190297 0  0.2897864851748124 0.2055930218738881 0  0.25645809709277 0.21 0  0.25261805618068 0.2074135021971937 0  0.2639263993298655 0.21 0  0.271394701566961 0.21 0  0.2863313060413428 0.19 0  0.2788630038042048 0.19 0  0.2489897948556636 0.19 0  0.2489897948556636 0.21 0  0.2802365149396702 0.2293267412254819 0  0.2888197773682229 0.2217624015035644 0  0.2799011483571476 0.2201540359780956 0  0.2798983539554935 0.1725715317274126 0  0.2887875715604008 0.1784526411902859 0  0.2798265752054099 0.1801908109055989 0  0.2607466101664424 0.2266930975791233 0  0.271385042995999 0.2220255791858506 0  0.2640363109795177 0.2179944263838653 0  0.2544808243315743 0.2458504951732927 0  0.2658768459325225 0.2418747601129979 0  0.2588244756332078 0.23611127323402 0  0.2516468834717856 0.2324930308055588 0  0.2510679533716966 0.2249523323210773 0  0.2433956710264305 0.2381734167068584 0  0.2460613805257083 0.2485222416480207 0  0.2507569858396673 0.2399489856244889 0  0.2607333124992295 0.173299215235651 0  0.2711961111491841 0.1784474567953763 0  0.2640363109795686 0.1820055736160818 0  0.250265698216607 0.2591459325753045 0  0.2627897304119148 0.25271037528669 0  0.2397046897252064 0.2463916348380001 0  0.2693249379754523 0.232253714048252 0  0.246996525252926 0.2170682926548348 0  0.2561841824185058 0.2195000859865352 0  0.2469965252529372 0.1829317073451959 0  0.2561841824184873 0.1804999140134954 0  0.2510789311637825 0.1750218956597876 0  0.2854688561834498 0.2412236914981949 0  0.2752342263051384 0.2394149830158712 0  0.2897734241776366 0.2309782844302881 0  0.2352133972703547 0.2354967132658811 0  0.2400332147833751 0.2299556624715287 0  0.2898993665208313 0.2148884498665536 0  0.2825971549226016 0.2141870669404288 0  0.2533462554466219 0.2143516991142523 0  0.2533462554466303 0.18564830088576 0  0.2234150974215506 0.2441784247426195 0  0.2296339016331197 0.2402719738031125 0  0.2306200006656481 0.2483744735801409 0  0.2900654571599118 0.1851244352956092 0  0.2825971549227736 0.1858129330595456 0  0.2693200344911409 0.1703624615729042 0  0.2370670604668411 0.2561437100875122 0  0.2439893735792577 0.2237683615780412 0  0.2254320944728471 0.256276132616746 0  0.2751288526855082 0.2504894696471402 0  0.2973772572263381 0.2175617982546508 0  0.2973900081628705 0.1824599091601672 0  0.2460399618407353 0.2294379412176375 0  0.235672688557912 0.2416805760911849 0  0.2220625618530342 0.2502300158941232 0  0.2166911463435495 0.2471317900544655 0  0.2155707468285289 0.2556953171569842 0  0.2754241708482248 0.2153487639899751 0  0.3050224637686886 0.1840003691157356 0  0.3052148703289762 0.176135200920133 0  0.2751288526856362 0.184558060069257 0  0.2968565228222139 0.1734776848403526 0  0.2692521927396536 0.2151979606124073 0  0.2691876260717925 0.1848526873929683 0  0.2601922482113177 0.2140493078607503 0  0.260192248211366 0.1859506921392313 0  </DataArray>
</Points>
<Cells>
<DataArray  type="UInt32"  Name="connectivity"  format="ascii">0 1 2  3 1 4  5 6 7  8 6 7  5 6 9  10 6 9  11 12 13  8 14 15  16 14 15  17 10 6  18 19 14  0 20 2  21 3 4  5 7 22  11 23 24  8 7 25  8 15 26  11 13 24  16 15 27  18 14 25  8 14 25  28 24 29  8 6 26  17 6 26  19 14 30  16 14 30  31 13 32  33 34 7  35 36 15  5 13 24  12 13 32  33 7 22  28 24 9  34 7 25  31 13 22  36 15 26  23 24 29  1 4 2  16 4 2  35 15 27  10 28 9  31 33 22  5 24 9  20 35 27  19 21 30  36 17 26  34 18 25  5 13 22  37 23 29  38 12 32  20 2 27  21 4 30  16 4 30  16 2 27  37 28 29  38 31 32  39 40 41  42 43 44  45 46 47  48 49 50  45 51 52  53 54 55  56 57 58  48 59 60  61 53 54  45 46 62  39 46 41  42 57 44  63 64 52  39 46 62  65 66 67  39 68 69  39 68 70  39 40 70  45 62 50  71 72 53  40 73 74  63 64 75  65 66 76  48 49 60  77 78 79  43 80 81  42 57 82  45 64 52  40 41 74  83 61 54  45 64 47  56 66 67  43 44 81  84 63 52  48 54 55  83 61 79  56 66 58  56 57 82  45 51 50  48 50 55  83 85 79  86 49 60  39 62 69  48 59 54  21 3 87  49 62 50  0 20 88  72 53 89  83 59 54  71 53 90  86 49 69  78 79 90  77 79 91  92 93 91  86 68 69  51 53 89  46 41 94  0 88 95  96 88 95  57 44 97  21 87 73  20 88 80  61 53 90  96 88 98  61 79 90  49 62 69  33 34 99  17 10 100  85 79 91  33 47 99  10 58 100  85 93 91  40 87 73  43 88 98  34 18 94  36 17 97  43 88 80  51 50 55  19 21 73  38 31 75  20 35 80  37 28 76  33 47 101  51 53 55  10 58 102  31 75 101  38 63 75  28 76 102  37 65 76  84 52 89  64 75 101  72 84 89  78 71 90  66 76 102  64 47 101  92 77 91  66 58 102  18 94 74  36 97 81  31 33 101  10 28 102  18 19 74  35 36 81  19 73 74  35 80 81  46 47 99  57 58 100  51 52 89  41 94 74  44 97 81  46 94 99  57 97 100  34 94 99  17 97 100  </DataArray>
<DataArray  type="UInt32"  Name="offsets"  format="ascii">3 6 9 12 15 18 21 24 27 30 33 36 39 42 45 48 51 54 57 60 63 66 69 72 75 78 81 84 87 90 93 96 99 102 105 108 111 114 117 120 123 126 129 132 135 138 141 144 147 150 153 156 159 162 165 168 171 174 177 180 183 186 189 192 195 198 201 204 207 210 213 216 219 222 225 228 231 234 237 240 243 246 249 252 255 258 261 264 267 270 273 276 279 282 285 288 291 294 297 300 303 306 309 312 315 318 321 324 327 330 333 336 339 342 345 348 351 354 357 360 363 366 369 372 375 378 381 384 387 390 393 396 399 402 405 408 411 414 417 420 423 426 429 432 435 438 441 444 447 450 453 456 459 462 465 468 471 474 477 480 483 486 489 492 495 498 501 504 507 510 </DataArray>
<DataArray  type="UInt8"  Name="types"  format="ascii">5 5 5 5 5 5 5 5 5 5 5 5 5 5 5 5 5 5 5 5 5 5 5 5 5 5 5 5 5 5 5 5 5 5 5 5 5 5 5 5 5 5 5 5 5 5 5 5 5 5 5 5 5 5 5 5 5 5 5 5 5 5 5 5 5 5 5 5 5 5 5 5 5 5 5 5 5 5 5 5 5 5 5 5 5 5 5 5 5 5 5 5 5 5 5 5 5 5 5 5 5 5 5 5 5 5 5 5 5 5 5 5 5 5 5 5 5 5 5 5 5 5 5 5 5 5 5 5 5 5 5 5 5 5 5 5 5 5 5 5 5 5 5 5 5 5 5 5 5 5 5 5 5 5 5 5 5 5 5 5 5 5 5 5 5 5 5 5 5 5 </DataArray>
</Cells>
<PointData  Vectors="f_43-1"> 
<DataArray  type="Float64"  Name="f_43-1"  NumberOfComponents="3" format="ascii">-3.3472533723807630e-07 3.4775842176266082e-07 0.0000000000000000e+00  -2.9261576744385657e-07 -1.2990354577988659e-07 0.0000000000000000e+00  -2.7704033726811362e-07 7.7747276725842911e-08 0.0000000000000000e+00  -2.5305697288777904e-07 -6.1585383107446375e-07 0.0000000000000000e+00  -2.4838326043408207e-07 -2.9283956640914956e-07 0.0000000000000000e+00  -1.3891122132533498e-07 -1.2747054266911289e-08 0.0000000000000000e+00  -1.5090414910444657e-07 1.6196173964521179e-07 0.0000000000000000e+00  -1.3601519528314910e-07 -2.2700809061571733e-07 0.0000000000000000e+00  -1.7097205969756973e-07 -3.9373849561446075e-08 0.0000000000000000e+00  -1.2262722639500201e-07 2.6727918383149958e-07 0.0000000000000000e+00  -1.2688783472995311e-07 4.8764876994721226e-07 0.0000000000000000e+00  0.0000000000000000e+00 0.0000000000000000e+00 0.0000000000000000e+00  0.0000000000000000e+00 0.0000000000000000e+00 0.0000000000000000e+00  -1.1117462777624311e-07 -1.4111318982576495e-07 0.0000000000000000e+00  -1.9108376486494897e-07 -2.3656831999750226e-07 0.0000000000000000e+00  -2.1384055251453192e-07 1.3582555943337965e-07 0.0000000000000000e+00  -2.3509646357409700e-07 -7.9359361995888415e-08 0.0000000000000000e+00  -1.7534335345447870e-07 4.6804111463899087e-07 0.0000000000000000e+00  -1.5623513093548173e-07 -5.4716381104656685e-07 0.0000000000000000e+00  -1.8472792019121651e-07 -5.6680608689603610e-07 0.0000000000000000e+00  -2.9177656878798530e-07 3.8217889634624205e-07 0.0000000000000000e+00  -2.1694554768367604e-07 -5.9003845924739294e-07 0.0000000000000000e+00  -1.0689451603752790e-07 -2.9937452083460660e-07 0.0000000000000000e+00  0.0000000000000000e+00 0.0000000000000000e+00 0.0000000000000000e+00  -1.1360078401025475e-07 1.2897155679830497e-07 0.0000000000000000e+00  -1.5505365740270467e-07 -3.2428155620975746e-07 0.0000000000000000e+00  -1.8347590263426789e-07 2.4372031216522488e-07 0.0000000000000000e+00  -2.5395226485071958e-07 1.8647529371605205e-07 0.0000000000000000e+00  -3.4555541567782137e-08 4.4833295484895086e-07 0.0000000000000000e+00  -5.3791568431588543e-08 2.1587669267166636e-07 0.0000000000000000e+00  -2.1619960612831436e-07 -3.6062245377251010e-07 0.0000000000000000e+00  -1.8448816258640157e-08 -4.6245352936557328e-07 0.0000000000000000e+00  -4.9232071811924543e-08 -2.2249939926029821e-07 0.0000000000000000e+00  -9.5481253444237796e-08 -5.2191035798404076e-07 0.0000000000000000e+00  -1.3049535362873809e-07 -5.3309084515729567e-07 0.0000000000000000e+00  -2.5118853938272655e-07 4.1365531704594716e-07 0.0000000000000000e+00  -2.1274548452911030e-07 4.4199081431231210e-07 0.0000000000000000e+00  0.0000000000000000e+00 0.0000000000000000e+00 0.0000000000000000e+00  0.0000000000000000e+00 0.0000000000000000e+00 0.0000000000000000e+00  -1.7876013491187700e-07 -4.1829582080698736e-07 0.0000000000000000e+00  -2.1053680613334232e-07 -5.0461883088572480e-07 0.0000000000000000e+00  -1.6921793143786565e-07 -4.7483077113617581e-07 0.0000000000000000e+00  -2.1766555264209632e-07 2.7353386305498792e-07 0.0000000000000000e+00  -2.6613244742127120e-07 3.1102512416206937e-07 0.0000000000000000e+00  -2.1669032839354166e-07 3.3818599618970634e-07 0.0000000000000000e+00  -8.5905393359610164e-08 -2.7448858816885679e-07 0.0000000000000000e+00  -1.3231788605918155e-07 -4.1174727088131921e-07 0.0000000000000000e+00  -9.2048919110356869e-08 -3.9098749272039421e-07 0.0000000000000000e+00  -9.0509873238607881e-08 -1.7679691007593342e-07 0.0000000000000000e+00  -1.2891622097926847e-07 -2.6672877139918989e-07 0.0000000000000000e+00  -9.2194735605282337e-08 -2.2131306074530151e-07 0.0000000000000000e+00  -5.5423205387548161e-08 -1.4727855628346141e-07 0.0000000000000000e+00  -3.6267699178104385e-08 -1.3385565112800315e-07 0.0000000000000000e+00  -3.6014402953746098e-08 -7.7201402322044382e-08 0.0000000000000000e+00  -6.6620997021116452e-08 -1.2150963692161897e-07 0.0000000000000000e+00  -6.6789734168816306e-08 -1.4491609353780196e-07 0.0000000000000000e+00  -1.0689059470708281e-07 2.0643378766029199e-07 0.0000000000000000e+00  -1.6724006311583286e-07 3.1484490189840827e-07 0.0000000000000000e+00  -1.1986933408267348e-07 3.3073869423345433e-07 0.0000000000000000e+00  -9.4896933840299116e-08 -1.5331078116582553e-07 0.0000000000000000e+00  -1.2870847394244230e-07 -2.2546017036884239e-07 0.0000000000000000e+00  -4.3287963989006987e-08 -7.8335010062840649e-08 0.0000000000000000e+00  -1.3272555370634264e-07 -3.2890936749657289e-07 0.0000000000000000e+00  0.0000000000000000e+00 0.0000000000000000e+00 0.0000000000000000e+00  -4.8649251897719490e-08 -2.5503888768082287e-07 0.0000000000000000e+00  0.0000000000000000e+00 0.0000000000000000e+00 0.0000000000000000e+00  -6.4114329448180170e-08 2.1903573370028776e-07 0.0000000000000000e+00  -4.5535941071035819e-08 1.0489559960876665e-07 0.0000000000000000e+00  -2.1124972939454251e-07 -3.8949171364322316e-07 0.0000000000000000e+00  -1.6548362051685363e-07 -3.3892341510514217e-07 0.0000000000000000e+00  -2.2360803131361335e-07 -4.5875880563077058e-07 0.0000000000000000e+00  0.0000000000000000e+00 0.0000000000000000e+00 0.0000000000000000e+00  0.0000000000000000e+00 0.0000000000000000e+00 0.0000000000000000e+00  -2.0706894571687355e-07 -5.4909309654574662e-07 0.0000000000000000e+00  -1.7496933623221163e-07 -5.2775393961212280e-07 0.0000000000000000e+00  -1.2735764385793638e-08 -2.4810544801458355e-07 0.0000000000000000e+00  -2.3108221450555134e-08 2.3126144365814448e-07 0.0000000000000000e+00  0.0000000000000000e+00 0.0000000000000000e+00 0.0000000000000000e+00  0.0000000000000000e+00 0.0000000000000000e+00 0.0000000000000000e+00  -2.4915588339718661e-08 -4.0967920779167868e-08 0.0000000000000000e+00  -2.7244782246905669e-07 3.5881975806580562e-07 0.0000000000000000e+00  -2.3189234091489605e-07 3.8706455279532521e-07 0.0000000000000000e+00  -1.5971755140510514e-07 2.3477183740015411e-07 0.0000000000000000e+00  -5.5319264091914072e-08 -8.8362181070002299e-08 0.0000000000000000e+00  0.0000000000000000e+00 0.0000000000000000e+00 0.0000000000000000e+00  -3.1933868451814777e-08 -4.7781314375654801e-08 0.0000000000000000e+00  -1.7351382916928519e-07 -3.0096643838644568e-07 0.0000000000000000e+00  -2.4577859213659941e-07 -5.6221979849015014e-07 0.0000000000000000e+00  -3.1406924835891325e-07 3.1523334655263099e-07 0.0000000000000000e+00  -2.4510305550150246e-08 -6.9062363424207460e-08 0.0000000000000000e+00  -2.0281138930197050e-08 -3.7672212072368731e-08 0.0000000000000000e+00  -1.4060490513305335e-08 -2.1266316832247529e-08 0.0000000000000000e+00  0.0000000000000000e+00 0.0000000000000000e+00 0.0000000000000000e+00  -1.7683806709941269e-08 -2.5003416526392979e-08 0.0000000000000000e+00  -1.4649488159298496e-07 -4.9235366499720722e-07 0.0000000000000000e+00  -3.5868085283750716e-07 2.9548894687156291e-07 0.0000000000000000e+00  -3.5962860070281204e-07 2.5323086488061506e-07 0.0000000000000000e+00  -1.9113387152300659e-07 3.8811929907243239e-07 0.0000000000000000e+00  -3.1109959656160692e-07 2.6177514448477344e-07 0.0000000000000000e+00  -1.1899716334220134e-07 -4.6570300394387257e-07 0.0000000000000000e+00  -1.5595235360962245e-07 3.9294796645755435e-07 0.0000000000000000e+00  -6.4012568129742167e-08 -4.0920902974909081e-07 0.0000000000000000e+00  -8.6653035913347431e-08 3.7344026162289922e-07 0.0000000000000000e+00  </DataArray> 
</PointData> 
</Piece>
</UnstructuredGrid>
</VTKFile>