<?xml version="1.0"?>
<VTKFile type="UnstructuredGrid"  version="0.1"  >
<UnstructuredGrid>
<Piece  NumberOfPoints="102" NumberOfCells="171">
<Points>
<DataArray  type="Float64"  NumberOfComponents="3"  format="ascii">0.476773013087985 0.1999999999998713 0  0.4693047108508938 0.1970915826863783 0  0.4693047108503577 0.2040749161535231 0  0.4917096175621762 0.1999999999998808 0  0.4842413153250809 0.1970915826863873 0  0.4842413153245942 0.2040749161535287 0  0.5066462220363641 0.199999999999908 0  0.4991779197992749 0.1970915826863902 0  0.4991779197988497 0.2040749161535382 0  0.5215828265105155 0.1999999999999228 0  0.5141145242734466 0.1970915826863843 0  0.5141145242731028 0.2040749161535395 0  0.5365194309847112 0.1999999999999436 0  0.5290511287476175 0.1970915826863981 0  0.5290511287473298 0.2040749161535501 0  0.5327852798661811 0.19 0  0.5253169776290537 0.19 0  0.5178486753919799 0.19 0  0.5103803731549078 0.19 0  0.4879754664436223 0.19 0  0.4805071642065402 0.19 0  0.502912070917822 0.19 0  0.4954437686807294 0.19 0  0.4767730130872753 0.2056971942287455 0  0.4917096175615203 0.2056971942287492 0  0.5066462220358396 0.2056971942287649 0  0.5215828265100828 0.2056971942287677 0  0.5365194309843644 0.2056971942287865 0  0.5439623148931173 0.2040856076781014 0  0.5365194309847112 0.1943028057711659 0  0.5215828265105155 0.1943028057711514 0  0.4767730130879849 0.1943028057711153 0  0.4917096175621761 0.1943028057711214 0  0.5066462220363641 0.1943028057711422 0  0.480507164205851 0.21 0  0.4879754664429498 0.21 0  0.5103803731544119 0.21 0  0.5178486753915261 0.21 0  0.5402535821029386 0.21 0  0.54772188434007 0.21 0  0.4954437686800938 0.21 0  0.502912070917267 0.21 0  0.5253169776286404 0.21 0  0.5327852798657868 0.21 0  0.4730388619686996 0.21 0  0.4991779197992711 0.167693385507626 0  0.4900906149793102 0.1565876018036352 0  0.5082652246192162 0.1565876018036352 0  0.499237761463083 0.2192785032300353 0  0.4993542269391089 0.2308107468212473 0  0.5064903940750056 0.2246838314870058 0  0.5123638022628456 0.2310955071885417 0  0.536567636007916 0.2275987754591341 0  0.5347760817351684 0.2414500964404198 0  0.5283542774025207 0.2302880001042248 0  0.5455709551586724 0.2324144452751203 0  0.546982877175164 0.2233942294772845 0  0.5365194309843644 0.2180863504285254 0  0.5444469726554123 0.2157339702670886 0  0.5588244563271773 0.225349035787779 0  0.5519051872593019 0.2166420053265535 0  0.5216178319364539 0.1813492122870838 0  0.5265047000024197 0.2223941974774756 0  0.5286910337265995 0.2154702409242758 0  0.5150278681324471 0.2228450308306156 0  0.5214285426002536 0.2161011329323836 0  0.4767730130872752 0.2184019876485795 0  0.5209814004512184 0.2362962593649592 0  0.5084573036363184 0.2395108277223441 0  0.553378981997341 0.2322691570724318 0  0.5504647692515866 0.2417078359721865 0  0.4910031975930484 0.2171006717137592 0  0.5075668509025225 0.2171084086245455 0  0.5143590539697885 0.2155988592715468 0  0.4917096175621761 0.1826726487251064 0  0.5066462220363641 0.1826726487251085 0  0.5208355992062484 0.2285465546466679 0  0.4767380076620556 0.1813492122870721 0  0.4842366479349569 0.1837683957184343 0  0.5141191916635692 0.1837683957184422 0  0.4867628426197099 0.1672556638427207 0  0.5290511287476175 0.1834818376483974 0  0.5115929969788211 0.1672556638427288 0  0.4841984187204001 0.2159109988582109 0  0.5294745265341012 0.1761054820336709 0  0.5366299525895074 0.1825690825227473 0  0.4842413153250809 0.1755365127551258 0  0.4923756029794709 0.2245693836696246 0  0.4869999746943883 0.2308048359320609 0  0.5141145242734466 0.1755365127551412 0  0.4846260107628763 0.2228898464509046 0  0.4767730130879849 0.1622083790703084 0  0.5215828265105156 0.1622083790703317 0  0.4991779197992725 0.1783172034453956 0  0.4923389098589435 0.1741809711526818 0  0.4767269250530047 0.1713973971258736 0  0.506016929739597 0.1741809711526895 0  0.5349004284018322 0.1565876018036672 0  0.5316967135713353 0.1673421178078786 0  0.5216289307659581 0.1713997813123399 0  0.4991779197992735 0.1849089375109228 0  0.5631143150331265 0.2366473934541688 0  </DataArray>
</Points>
<Cells>
<DataArray  type="UInt32"  Name="connectivity"  format="ascii">0 1 2  3 4 5  6 7 8  9 10 11  12 13 14  9 13 14  6 10 11  3 7 8  0 4 5  15 16 13  17 18 10  19 20 4  21 22 7  0 2 23  3 5 24  6 8 25  9 11 26  12 14 27  12 28 27  9 14 26  6 11 25  3 8 24  0 5 23  15 13 29  16 13 30  9 13 30  12 13 29  0 4 31  20 4 31  0 1 31  19 4 32  18 10 33  21 7 33  22 7 32  17 10 30  6 7 33  6 10 33  3 4 32  3 7 32  9 10 30  34 35 5  36 37 11  38 39 28  40 41 8  42 43 14  34 5 23  44 2 23  35 5 24  40 8 24  36 11 25  41 8 25  42 14 26  43 14 27  38 28 27  37 11 26  44 34 23  35 40 24  41 36 25  43 38 27  37 42 26  22 19 32  18 21 33  16 17 30  45 46 47  40 41 48  49 50 51  52 53 54  52 53 55  56 57 58  59 56 60  52 56 57  16 17 61  52 62 57  62 57 63  64 62 65  44 34 66  67 53 54  43 38 57  49 68 51  59 56 69  70 53 55  40 48 71  41 48 72  52 56 55  64 73 65  22 19 74  18 21 75  64 62 76  20 77 78  17 61 79  45 46 80  16 61 81  56 55 69  45 47 82  34 66 83  35 40 71  41 36 72  84 85 81  52 62 54  86 74 78  49 87 88  67 68 51  89 75 79  38 57 58  43 57 63  90 71 83  64 72 73  91 46 80  19 20 78  17 18 79  15 16 81  34 35 83  92 47 82  36 37 73  45 93 94  86 77 95  45 93 96  92 97 98  45 94 80  19 74 78  84 61 99  18 75 79  45 96 82  89 61 99  90 71 87  37 42 65  15 85 81  64 72 50  86 74 94  89 75 96  38 39 58  35 71 83  36 72 73  22 74 100  21 75 100  42 43 63  84 61 81  86 80 95  84 98 99  86 77 78  89 61 79  89 82 99  49 48 87  49 48 50  90 66 83  37 73 65  48 71 87  48 72 50  39 60 58  42 65 63  92 98 99  91 80 95  59 101 69  21 22 100  92 82 99  64 50 51  86 94 80  93 74 94  93 75 96  89 96 82  70 101 69  93 74 100  93 75 100  56 60 58  62 65 63  90 87 88  62 54 76  64 76 51  70 55 69  67 76 51  67 54 76  </DataArray>
<DataArray  type="UInt32"  Name="offsets"  format="ascii">3 6 9 12 15 18 21 24 27 30 33 36 39 42 45 48 51 54 57 60 63 66 69 72 75 78 81 84 87 90 93 96 99 102 105 108 111 114 117 120 123 126 129 132 135 138 141 144 147 150 153 156 159 162 165 168 171 174 177 180 183 186 189 192 195 198 201 204 207 210 213 216 219 222 225 228 231 234 237 240 243 246 249 252 255 258 261 264 267 270 273 276 279 282 285 288 291 294 297 300 303 306 309 312 315 318 321 324 327 330 333 336 339 342 345 348 351 354 357 360 363 366 369 372 375 378 381 384 387 390 393 396 399 402 405 408 411 414 417 420 423 426 429 432 435 438 441 444 447 450 453 456 459 462 465 468 471 474 477 480 483 486 489 492 495 498 501 504 507 510 513 </DataArray>
<DataArray  type="UInt8"  Name="types"  format="ascii">5 5 5 5 5 5 5 5 5 5 5 5 5 5 5 5 5 5 5 5 5 5 5 5 5 5 5 5 5 5 5 5 5 5 5 5 5 5 5 5 5 5 5 5 5 5 5 5 5 5 5 5 5 5 5 5 5 5 5 5 5 5 5 5 5 5 5 5 5 5 5 5 5 5 5 5 5 5 5 5 5 5 5 5 5 5 5 5 5 5 5 5 5 5 5 5 5 5 5 5 5 5 5 5 5 5 5 5 5 5 5 5 5 5 5 5 5 5 5 5 5 5 5 5 5 5 5 5 5 5 5 5 5 5 5 5 5 5 5 5 5 5 5 5 5 5 5 5 5 5 5 5 5 5 5 5 5 5 5 5 5 5 5 5 5 5 5 5 5 5 5 </DataArray>
</Cells>
<PointData  Vectors="f_43-1"> 
<DataArray  type="Float64"  Name="f_43-1"  NumberOfComponents="3" format="ascii">-1.0052261031274436e-06 -2.1932604722880982e-05 0.0000000000000000e+00  -1.1492156173281392e-06 -2.0556658169036606e-05 0.0000000000000000e+00  -1.9361879032814595e-07 -2.1400326699484318e-05 0.0000000000000000e+00  -1.5571452500344750e-06 -2.3994576905097249e-05 0.0000000000000000e+00  -1.6723753674328270e-06 -2.2622534664063987e-05 0.0000000000000000e+00  -7.0836713500549626e-07 -2.3437752169571981e-05 0.0000000000000000e+00  -2.1738263840262744e-06 -2.6068981391961662e-05 0.0000000000000000e+00  -2.2592047894142531e-06 -2.4703044223871466e-05 0.0000000000000000e+00  -1.2889926892861433e-06 -2.5489682858994535e-05 0.0000000000000000e+00  -2.8556720503955247e-06 -2.8152383435734495e-05 0.0000000000000000e+00  -2.9102787731158566e-06 -2.6794234117844375e-05 0.0000000000000000e+00  -1.9355586281641076e-06 -2.7552128762223008e-05 0.0000000000000000e+00  -3.6032471257680300e-06 -3.0242258121164812e-05 0.0000000000000000e+00  -3.6262546919872999e-06 -2.8893169003390370e-05 0.0000000000000000e+00  -2.6482501656008704e-06 -2.9622075174950644e-05 0.0000000000000000e+00  -4.7904620777815832e-06 -2.8686847248143672e-05 0.0000000000000000e+00  -4.4148233976688610e-06 -2.7621210905202365e-05 0.0000000000000000e+00  -4.0553220019949863e-06 -2.6557125240543159e-05 0.0000000000000000e+00  -3.7117884114809472e-06 -2.5494984341778030e-05 0.0000000000000000e+00  -2.7756726244360828e-06 -2.2322975766929100e-05 0.0000000000000000e+00  -2.4946571150497145e-06 -2.1271943584787227e-05 0.0000000000000000e+00  -3.3840989892184815e-06 -2.4434954625485415e-05 0.0000000000000000e+00  -3.0720941521733116e-06 -2.3377521992987551e-05 0.0000000000000000e+00  -2.1704195854223664e-07 -2.2609995714638230e-05 0.0000000000000000e+00  -7.6306049001771059e-07 -2.4648527876196959e-05 0.0000000000000000e+00  -1.3754105635968443e-06 -2.6699414212033650e-05 0.0000000000000000e+00  -2.0540952846059892e-06 -2.8759175901669882e-05 0.0000000000000000e+00  -2.7993352975943876e-06 -3.0825193442093958e-05 0.0000000000000000e+00  -3.4246567431362435e-06 -3.1694859780034554e-05 0.0000000000000000e+00  -4.3947061096614206e-06 -2.9659821476243696e-05 0.0000000000000000e+00  -3.6449308004405714e-06 -2.7546278213169798e-05 0.0000000000000000e+00  -1.7812956664856524e-06 -2.1256970319552417e-05 0.0000000000000000e+00  -2.3390689206486528e-06 -2.3341922915268164e-05 0.0000000000000000e+00  -2.9600149527436082e-06 -2.5439491131511082e-05 0.0000000000000000e+00  2.5768372422706907e-07 -2.3626483854769429e-05 0.0000000000000000e+00  -1.3164267253844647e-08 -2.4636846841505322e-05 0.0000000000000000e+00  -9.2682950979505145e-07 -2.7685906514492130e-05 0.0000000000000000e+00  -1.2649785224513963e-06 -2.8706826960142632e-05 0.0000000000000000e+00  -2.3801768924045121e-06 -3.1778481472258004e-05 0.0000000000000000e+00  -2.7856688946066991e-06 -3.2804535469441912e-05 0.0000000000000000e+00  -3.0084777018534797e-07 -2.5650528101062656e-05 0.0000000000000000e+00  -6.0541501575033408e-07 -2.6666985502602784e-05 0.0000000000000000e+00  -1.6199085544036113e-06 -2.9729409823442119e-05 0.0000000000000000e+00  -1.9916179453369246e-06 -3.0753402166338143e-05 0.0000000000000000e+00  5.1155486028413196e-07 -2.2620102557833303e-05 0.0000000000000000e+00  -2.9204587394863898e-06 -2.0347431652362400e-05 0.0000000000000000e+00  -2.4825033846643537e-06 -1.7755381061905594e-05 0.0000000000000000e+00  -2.9973434010970178e-06 -1.9498352941361868e-05 0.0000000000000000e+00  -5.3072596248878259e-07 -2.4579768360274230e-05 0.0000000000000000e+00  -5.9676328306754373e-07 -2.2653597371211021e-05 0.0000000000000000e+00  -8.2622510944913599e-07 -2.4499193954977246e-05 0.0000000000000000e+00  -1.0436823139899329e-06 -2.3976225847412023e-05 0.0000000000000000e+00  -1.9921294711726616e-06 -2.7152939824611794e-05 0.0000000000000000e+00  -1.7460836582648010e-06 -2.3953642639522962e-05 0.0000000000000000e+00  -1.6383638270872158e-06 -2.5753906814086365e-05 0.0000000000000000e+00  -2.2734845780733260e-06 -2.6834340494576220e-05 0.0000000000000000e+00  -2.5044562682114682e-06 -2.9207371408767341e-05 0.0000000000000000e+00  -2.1037241430389452e-06 -2.9351587508978835e-05 0.0000000000000000e+00  -2.5191123325973463e-06 -3.0883189371069914e-05 0.0000000000000000e+00  -2.9828700468487387e-06 -2.9775821197163108e-05 0.0000000000000000e+00  -2.8789028696535103e-06 -3.1534871976396084e-05 0.0000000000000000e+00  -4.0322996697861074e-06 -2.5388031337078418e-05 0.0000000000000000e+00  -1.6221427260754500e-06 -2.7227551399732547e-05 0.0000000000000000e+00  -1.7597093202545842e-06 -2.8985010981346533e-05 0.0000000000000000e+00  -1.1509252484291649e-06 -2.5821395842024414e-05 0.0000000000000000e+00  -1.4273173071042038e-06 -2.7935299735816990e-05 0.0000000000000000e+00  2.5397584389712882e-07 -2.1933085319654518e-05 0.0000000000000000e+00  -1.3271188311892216e-06 -2.3837668821161837e-05 0.0000000000000000e+00  -9.0303878531922835e-07 -2.2084114305903061e-05 0.0000000000000000e+00  -2.5763719719909507e-06 -2.7470245943839841e-05 0.0000000000000000e+00  -2.2569515191356076e-06 -2.4940073582193261e-05 0.0000000000000000e+00  -2.1011772251242886e-07 -2.3912016347380688e-05 0.0000000000000000e+00  -8.4172294822929113e-07 -2.5996656902717914e-05 0.0000000000000000e+00  -1.1192918960859743e-06 -2.7139770935805841e-05 0.0000000000000000e+00  -2.8554372323212222e-06 -2.1743523132323710e-05 0.0000000000000000e+00  -3.4336185688009603e-06 -2.3699931803568317e-05 0.0000000000000000e+00  -1.3622489863872367e-06 -2.5346076909565926e-05 0.0000000000000000e+00  -2.3222750827288636e-06 -1.9607486072177131e-05 0.0000000000000000e+00  -2.5939176025035178e-06 -2.0917286495654420e-05 0.0000000000000000e+00  -3.7639754184048841e-06 -2.4875817911493682e-05 0.0000000000000000e+00  -2.5226098319176928e-06 -1.8905230968064071e-05 0.0000000000000000e+00  -4.4187976313946576e-06 -2.6774761803039126e-05 0.0000000000000000e+00  -3.3265542634255848e-06 -2.1623614218685597e-05 0.0000000000000000e+00  4.3206187939856098e-08 -2.3232300490853392e-05 0.0000000000000000e+00  -4.2198344478166532e-06 -2.5283990472616402e-05 0.0000000000000000e+00  -4.7407278482854421e-06 -2.7546672065947090e-05 0.0000000000000000e+00  -2.5276229298113494e-06 -1.9766911933767948e-05 0.0000000000000000e+00  -3.2644743026719248e-07 -2.2889226546342643e-05 0.0000000000000000e+00  -2.0364097810440964e-07 -2.1318490825471678e-05 0.0000000000000000e+00  -3.5945176141283511e-06 -2.3373624824338527e-05 0.0000000000000000e+00  -5.4385970192033882e-08 -2.2236862738154617e-05 0.0000000000000000e+00  -2.1825253882075803e-06 -1.7143597399558761e-05 0.0000000000000000e+00  -3.5382895901325151e-06 -2.1730096308924300e-05 0.0000000000000000e+00  -3.0793771828912228e-06 -2.2025143493667927e-05 0.0000000000000000e+00  -2.7835264707566425e-06 -2.0550835430010583e-05 0.0000000000000000e+00  -2.2579337006329122e-06 -1.8314192282356532e-05 0.0000000000000000e+00  -3.2649839755857869e-06 -2.2178711616390089e-05 0.0000000000000000e+00  -3.7794391818891838e-06 -2.1803484425035443e-05 0.0000000000000000e+00  -4.0309546631224162e-06 -2.3709313228932557e-05 0.0000000000000000e+00  -3.7815737471922512e-06 -2.3463911140498471e-05 0.0000000000000000e+00  -3.1663728176555440e-06 -2.3082580219072363e-05 0.0000000000000000e+00  -2.8052340344797220e-06 -2.6868282837793118e-05 0.0000000000000000e+00  </DataArray> 
</PointData> 
</Piece>
</UnstructuredGrid>
</VTKFile>