<?xml version="1.0"?>
<VTKFile type="UnstructuredGrid"  version="0.1"  >
<UnstructuredGrid>
<Piece  NumberOfPoints="103" NumberOfCells="170">
<Points>
<DataArray  type="Float64"  NumberOfComponents="3"  format="ascii">0.3012679105156187 0.19 0  0.3006558810093873 0.1999966199048318 0  0.2950977245127906 0.1961819304477774 0  0.301267910515333 0.21 0  0.2950977245128307 0.2038180695522663 0  0.2607803159922026 0.2000727136295815 0  0.2677053789419034 0.1964246479135325 0  0.267698176732111 0.2039977513680092 0  0.2751288526855082 0.20000000000002 0  0.2603913042767976 0.1945999920783741 0  0.2639263993299336 0.19 0  0.25 0.2 0  0.2497468076502589 0.2050254481002335 0  0.2550657455369551 0.2034088125358657 0  0.2825131256993216 0.2035478995978015 0  0.2825051229162361 0.1959834479681729 0  0.2894621222999649 0.1998691686390484 0  0.2713947015670686 0.19 0  0.2788630038040554 0.21 0  0.2863313060411479 0.21 0  0.2937996082784807 0.19 0  0.2937996082782405 0.21 0  0.2601812407614425 0.2056861609747042 0  0.2497468076502614 0.1949745518997913 0  0.2548908499171161 0.1966940311614271 0  0.2751288526855081 0.205697194228819 0  0.2751288526856362 0.1943028057711959 0  0.2895549462647731 0.1944069323160756 0  0.2564580970927985 0.19 0  0.2525889069107169 0.1926036384190297 0  0.2897864851748124 0.2055930218738881 0  0.25645809709277 0.21 0  0.25261805618068 0.2074135021971937 0  0.2639263993298655 0.21 0  0.271394701566961 0.21 0  0.2863313060413428 0.19 0  0.2788630038042048 0.19 0  0.2489897948556636 0.19 0  0.2489897948556636 0.21 0  0.2802365149396702 0.2293267412254819 0  0.2888197773682229 0.2217624015035644 0  0.2799011483571476 0.2201540359780956 0  0.2798983539554935 0.1725715317274126 0  0.2887875715604008 0.1784526411902859 0  0.2798265752054099 0.1801908109055989 0  0.2607466101664424 0.2266930975791233 0  0.271385042995999 0.2220255791858506 0  0.2640363109795177 0.2179944263838653 0  0.2544808243315743 0.2458504951732927 0  0.2658768459325225 0.2418747601129979 0  0.2588244756332078 0.23611127323402 0  0.2516468834717856 0.2324930308055588 0  0.2510679533716966 0.2249523323210773 0  0.2433956710264305 0.2381734167068584 0  0.2460613805257083 0.2485222416480207 0  0.2507569858396673 0.2399489856244889 0  0.2607333124992295 0.173299215235651 0  0.2711961111491841 0.1784474567953763 0  0.2640363109795686 0.1820055736160818 0  0.250265698216607 0.2591459325753045 0  0.2627897304119148 0.25271037528669 0  0.2397046897252064 0.2463916348380001 0  0.2693249379754523 0.232253714048252 0  0.246996525252926 0.2170682926548348 0  0.2561841824185058 0.2195000859865352 0  0.2469965252529372 0.1829317073451959 0  0.2561841824184873 0.1804999140134954 0  0.2510789311637825 0.1750218956597876 0  0.2854688561834498 0.2412236914981949 0  0.2752342263051384 0.2394149830158712 0  0.2897734241776366 0.2309782844302881 0  0.2352133972703547 0.2354967132658811 0  0.2400332147833751 0.2299556624715287 0  0.2898993665208313 0.2148884498665536 0  0.2825971549226016 0.2141870669404288 0  0.2533462554466219 0.2143516991142523 0  0.2533462554466303 0.18564830088576 0  0.2234150974215506 0.2441784247426195 0  0.2296339016331197 0.2402719738031125 0  0.2306200006656481 0.2483744735801409 0  0.2900654571599118 0.1851244352956092 0  0.2825971549227736 0.1858129330595456 0  0.2693200344911409 0.1703624615729042 0  0.2370670604668411 0.2561437100875122 0  0.2439893735792577 0.2237683615780412 0  0.2254320944728471 0.256276132616746 0  0.2751288526855082 0.2504894696471402 0  0.2973772572263381 0.2175617982546508 0  0.2973900081628705 0.1824599091601672 0  0.2460399618407353 0.2294379412176375 0  0.235672688557912 0.2416805760911849 0  0.2220625618530342 0.2502300158941232 0  0.2166911463435495 0.2471317900544655 0  0.2155707468285289 0.2556953171569842 0  0.2754241708482248 0.2153487639899751 0  0.3050224637686886 0.1840003691157356 0  0.3052148703289762 0.176135200920133 0  0.2751288526856362 0.184558060069257 0  0.2968565228222139 0.1734776848403526 0  0.2692521927396536 0.2151979606124073 0  0.2691876260717925 0.1848526873929683 0  0.2601922482113177 0.2140493078607503 0  0.260192248211366 0.1859506921392313 0  </DataArray>
</Points>
<Cells>
<DataArray  type="UInt32"  Name="connectivity"  format="ascii">0 1 2  3 1 4  5 6 7  8 6 7  5 6 9  10 6 9  11 12 13  8 14 15  16 14 15  17 10 6  18 19 14  0 20 2  21 3 4  5 7 22  11 23 24  8 7 25  8 15 26  11 13 24  16 15 27  18 14 25  8 14 25  28 24 29  8 6 26  17 6 26  19 14 30  16 14 30  31 13 32  33 34 7  35 36 15  5 13 24  12 13 32  33 7 22  28 24 9  34 7 25  31 13 22  36 15 26  23 24 29  1 4 2  16 4 2  35 15 27  10 28 9  31 33 22  5 24 9  20 35 27  19 21 30  36 17 26  34 18 25  5 13 22  37 23 29  38 12 32  20 2 27  21 4 30  16 4 30  16 2 27  37 28 29  38 31 32  39 40 41  42 43 44  45 46 47  48 49 50  45 51 52  53 54 55  56 57 58  48 59 60  61 53 54  45 46 62  39 46 41  42 57 44  63 64 52  39 46 62  65 66 67  39 68 69  39 68 70  39 40 70  45 62 50  71 72 53  40 73 74  63 64 75  65 66 76  48 49 60  77 78 79  43 80 81  42 57 82  45 64 52  40 41 74  83 61 54  45 64 47  56 66 67  43 44 81  84 63 52  48 54 55  83 61 79  56 66 58  56 57 82  45 51 50  48 50 55  83 85 79  86 49 60  39 62 69  48 59 54  21 3 87  49 62 50  0 20 88  72 53 89  83 59 54  71 53 90  86 49 69  78 79 90  77 79 91  92 93 91  86 68 69  51 53 89  46 41 94  0 88 95  96 88 95  57 44 97  21 87 73  20 88 80  61 53 90  96 88 98  61 79 90  49 62 69  33 34 99  17 10 100  85 79 91  33 47 99  10 58 100  85 93 91  40 87 73  43 88 98  34 18 94  36 17 97  43 88 80  51 50 55  19 21 73  38 31 75  20 35 80  37 28 76  33 47 101  51 53 55  10 58 102  31 75 101  38 63 75  28 76 102  37 65 76  84 52 89  64 75 101  72 84 89  78 71 90  66 76 102  64 47 101  92 77 91  66 58 102  18 94 74  36 97 81  31 33 101  10 28 102  18 19 74  35 36 81  19 73 74  35 80 81  46 47 99  57 58 100  51 52 89  41 94 74  44 97 81  46 94 99  57 97 100  34 94 99  17 97 100  </DataArray>
<DataArray  type="UInt32"  Name="offsets"  format="ascii">3 6 9 12 15 18 21 24 27 30 33 36 39 42 45 48 51 54 57 60 63 66 69 72 75 78 81 84 87 90 93 96 99 102 105 108 111 114 117 120 123 126 129 132 135 138 141 144 147 150 153 156 159 162 165 168 171 174 177 180 183 186 189 192 195 198 201 204 207 210 213 216 219 222 225 228 231 234 237 240 243 246 249 252 255 258 261 264 267 270 273 276 279 282 285 288 291 294 297 300 303 306 309 312 315 318 321 324 327 330 333 336 339 342 345 348 351 354 357 360 363 366 369 372 375 378 381 384 387 390 393 396 399 402 405 408 411 414 417 420 423 426 429 432 435 438 441 444 447 450 453 456 459 462 465 468 471 474 477 480 483 486 489 492 495 498 501 504 507 510 </DataArray>
<DataArray  type="UInt8"  Name="types"  format="ascii">5 5 5 5 5 5 5 5 5 5 5 5 5 5 5 5 5 5 5 5 5 5 5 5 5 5 5 5 5 5 5 5 5 5 5 5 5 5 5 5 5 5 5 5 5 5 5 5 5 5 5 5 5 5 5 5 5 5 5 5 5 5 5 5 5 5 5 5 5 5 5 5 5 5 5 5 5 5 5 5 5 5 5 5 5 5 5 5 5 5 5 5 5 5 5 5 5 5 5 5 5 5 5 5 5 5 5 5 5 5 5 5 5 5 5 5 5 5 5 5 5 5 5 5 5 5 5 5 5 5 5 5 5 5 5 5 5 5 5 5 5 5 5 5 5 5 5 5 5 5 5 5 5 5 5 5 5 5 5 5 5 5 5 5 5 5 5 5 5 5 </DataArray>
</Cells>
<PointData  Vectors="f_43-1"> 
<DataArray  type="Float64"  Name="f_43-1"  NumberOfComponents="3" format="ascii">-2.7977774465710858e-07 3.8594630101003603e-07 0.0000000000000000e+00  -1.1964110391872019e-07 -4.9082109693339166e-07 0.0000000000000000e+00  -1.6593102439969109e-07 -5.7959743857689447e-08 0.0000000000000000e+00  4.9881752297858027e-08 -1.4030006090010994e-06 0.0000000000000000e+00  -5.1721341663787821e-08 -7.4626045025624732e-07 0.0000000000000000e+00  -1.6456120627101983e-07 -3.7077837769074345e-08 0.0000000000000000e+00  -1.4076816401164900e-07 2.6557522057490058e-07 0.0000000000000000e+00  -8.6583167392141049e-08 -4.5812541885361285e-07 0.0000000000000000e+00  -1.0347817105078306e-07 -1.4095920164426062e-07 0.0000000000000000e+00  -1.4853143509533905e-07 4.8312261658544701e-07 0.0000000000000000e+00  -1.4312168055458718e-07 8.7880628498542022e-07 0.0000000000000000e+00  0.0000000000000000e+00 0.0000000000000000e+00 0.0000000000000000e+00  0.0000000000000000e+00 0.0000000000000000e+00 0.0000000000000000e+00  -1.5839000468443536e-07 -2.6639947629552049e-07 0.0000000000000000e+00  -5.7681085048166796e-08 -5.5028436789539100e-07 0.0000000000000000e+00  -1.4586475783449303e-07 1.4180775386837151e-07 0.0000000000000000e+00  -1.0482161052170039e-07 -3.0502742736112901e-07 0.0000000000000000e+00  -1.8388799187268879e-07 8.1459119537398298e-07 0.0000000000000000e+00  1.1920696861232931e-08 -1.1108543009114067e-06 0.0000000000000000e+00  3.3114416574371984e-08 -1.1937762125472436e-06 0.0000000000000000e+00  -2.5026836462426500e-07 5.1398638313452029e-07 0.0000000000000000e+00  4.5890474613367905e-08 -1.2919893275687026e-06 0.0000000000000000e+00  -9.7746442019176292e-08 -5.7131386147198256e-07 0.0000000000000000e+00  0.0000000000000000e+00 0.0000000000000000e+00 0.0000000000000000e+00  -1.7071595503759288e-07 2.3742083817984827e-07 0.0000000000000000e+00  -4.5821952674111902e-08 -6.7263337439970751e-07 0.0000000000000000e+00  -1.5383038433973437e-07 3.8360079624162017e-07 0.0000000000000000e+00  -1.7772903658850194e-07 1.8665652854820167e-07 0.0000000000000000e+00  -1.9553890192540097e-08 8.2302871499195327e-07 0.0000000000000000e+00  -7.7772129329650156e-08 3.9892274276208954e-07 0.0000000000000000e+00  -2.5158985349999684e-08 -8.3160718078013599e-07 0.0000000000000000e+00  3.8860952766755913e-08 -8.7176581215740999e-07 0.0000000000000000e+00  -6.0812982725407041e-08 -4.1805964363932364e-07 0.0000000000000000e+00  -2.7583193276307612e-08 -9.9934006095993583e-07 0.0000000000000000e+00  -1.5847075682974951e-08 -1.0474724608054718e-06 0.0000000000000000e+00  -2.2502837784709829e-07 6.2847425665491412e-07 0.0000000000000000e+00  -2.0360338903271120e-07 7.2836199203167656e-07 0.0000000000000000e+00  0.0000000000000000e+00 0.0000000000000000e+00 0.0000000000000000e+00  0.0000000000000000e+00 0.0000000000000000e+00 0.0000000000000000e+00  -3.0032229927133449e-08 -9.5983734041160278e-07 0.0000000000000000e+00  -9.9537782289000774e-09 -1.1481547397759469e-06 0.0000000000000000e+00  -9.3284540882482054e-09 -1.0305810423364588e-06 0.0000000000000000e+00  -2.0523414008706326e-07 3.3924119607877598e-07 0.0000000000000000e+00  -2.4239912799176913e-07 3.7238951737988714e-07 0.0000000000000000e+00  -2.0385636507524749e-07 4.8571524912016010e-07 0.0000000000000000e+00  -1.4482619702406195e-08 -5.8893535569685773e-07 0.0000000000000000e+00  -1.5973133999131907e-08 -8.7584553942915619e-07 0.0000000000000000e+00  -1.0021736308790489e-08 -7.9013271291508340e-07 0.0000000000000000e+00  -3.3155147657179510e-08 -4.3047288928636788e-07 0.0000000000000000e+00  -4.0381853326453962e-08 -6.3743756468764573e-07 0.0000000000000000e+00  -2.5226374356652163e-08 -5.0784861853925813e-07 0.0000000000000000e+00  -1.3999626961696101e-08 -3.3058893097066310e-07 0.0000000000000000e+00  -4.2938739847266566e-09 -2.8306542466356522e-07 0.0000000000000000e+00  -1.2426169416593065e-08 -1.8313752645109106e-07 0.0000000000000000e+00  -2.7143353022224878e-08 -3.0235976238373335e-07 0.0000000000000000e+00  -2.2068596310155196e-08 -3.4232738623668379e-07 0.0000000000000000e+00  -1.0350423817422077e-07 3.0876160684242119e-07 0.0000000000000000e+00  -1.6244758802566538e-07 4.8105236062307417e-07 0.0000000000000000e+00  -1.1960863515116734e-07 5.5411246716099410e-07 0.0000000000000000e+00  -4.3384048833544611e-08 -3.9722607879334009e-07 0.0000000000000000e+00  -5.1521328760596220e-08 -5.6843997816242058e-07 0.0000000000000000e+00  -1.8044897731090168e-08 -1.9543097353965780e-07 0.0000000000000000e+00  -2.9073688342532953e-08 -7.4508286802807435e-07 0.0000000000000000e+00  0.0000000000000000e+00 0.0000000000000000e+00 0.0000000000000000e+00  2.0413096737941512e-09 -5.1365514411655001e-07 0.0000000000000000e+00  0.0000000000000000e+00 0.0000000000000000e+00 0.0000000000000000e+00  -5.9728392501471242e-08 3.6964313858599991e-07 0.0000000000000000e+00  -4.3203458130949011e-08 1.6246985824959283e-07 0.0000000000000000e+00  -6.2349388704036477e-08 -9.6636568625858414e-07 0.0000000000000000e+00  -4.6407989513760291e-08 -8.1171333826686884e-07 0.0000000000000000e+00  -4.0472100086546973e-08 -1.0985555215762635e-06 0.0000000000000000e+00  0.0000000000000000e+00 0.0000000000000000e+00 0.0000000000000000e+00  0.0000000000000000e+00 0.0000000000000000e+00 0.0000000000000000e+00  1.7487040523059963e-08 -1.2100449949106788e-06 0.0000000000000000e+00  9.7573048359085197e-09 -1.1184773109552944e-06 0.0000000000000000e+00  2.9919909899572919e-08 -4.7839121300291373e-07 0.0000000000000000e+00  -9.3100936770965223e-09 4.1380775892938101e-07 0.0000000000000000e+00  0.0000000000000000e+00 0.0000000000000000e+00 0.0000000000000000e+00  0.0000000000000000e+00 0.0000000000000000e+00 0.0000000000000000e+00  -1.1552860414489403e-08 -1.0546874953706800e-07 0.0000000000000000e+00  -2.4238960233600164e-07 4.7754221308566119e-07 0.0000000000000000e+00  -2.1466517346551042e-07 5.8348528018706360e-07 0.0000000000000000e+00  -1.5384509819035485e-07 3.1549089461287539e-07 0.0000000000000000e+00  -2.6175024526639885e-08 -2.2977026666406124e-07 0.0000000000000000e+00  0.0000000000000000e+00 0.0000000000000000e+00 0.0000000000000000e+00  -1.6246595855743384e-08 -1.2710648763595167e-07 0.0000000000000000e+00  -6.5154229483663078e-08 -7.6176163556168588e-07 0.0000000000000000e+00  7.6029852480523335e-09 -1.3023578061829861e-06 0.0000000000000000e+00  -2.7551054583771831e-07 3.3003967376600253e-07 0.0000000000000000e+00  -5.8014849917268440e-09 -1.5337639447461544e-07 0.0000000000000000e+00  -8.2840604730495914e-09 -9.3224030593375330e-08 0.0000000000000000e+00  -7.0964190659048401e-09 -5.6351198068038911e-08 0.0000000000000000e+00  0.0000000000000000e+00 0.0000000000000000e+00 0.0000000000000000e+00  -9.5202846711588954e-09 -6.7879387998456600e-08 0.0000000000000000e+00  -6.0408266107099601e-09 -1.0177959724453301e-06 0.0000000000000000e+00  -3.0809578261126928e-07 2.3285443897265426e-07 0.0000000000000000e+00  -3.2056415076339773e-07 1.3147941117994404e-07 0.0000000000000000e+00  -1.8615660915732607e-07 6.2216184114898686e-07 0.0000000000000000e+00  -2.8264295217179793e-07 2.0810816799784242e-07 0.0000000000000000e+00  -1.3699301432516074e-08 -9.3860175023204531e-07 0.0000000000000000e+00  -1.5811022325250594e-07 6.6029762428429392e-07 0.0000000000000000e+00  -2.2423630548592792e-10 -7.9605330702716383e-07 0.0000000000000000e+00  -8.6361824088779667e-08 6.6076677465167470e-07 0.0000000000000000e+00  </DataArray> 
</PointData> 
</Piece>
</UnstructuredGrid>
</VTKFile>