<?xml version="1.0"?>
<VTKFile type="UnstructuredGrid"  version="0.1"  >
<UnstructuredGrid>
<Piece  NumberOfPoints="102" NumberOfCells="169">
<Points>
<DataArray  type="Float64"  NumberOfComponents="3"  format="ascii">0.5626584888143201 0.21 0  0.5633122436674589 0.1999814296467508 0  0.5571672426447437 0.2036011176410121 0  0.5626584888145268 0.19 0  0.5688286748170428 0.1961819304477386 0  0.5688286748170693 0.203818069552238 0  0.5571594006495384 0.1963685282145804 0  0.6 0.19 0  0.5925316977628897 0.19 0  0.5965740209510578 0.1927759733278094 0  0.5887803774232762 0.2001272386983733 0  0.5815926498168407 0.1966545283159175 0  0.5814408164431408 0.2041285596160068 0  0.5850633955257988 0.19 0  0.5775950932887378 0.19 0  0.5745072403740523 0.2002044435018727 0  0.5511891430099709 0.2001122610077113 0  0.5439877332217911 0.197091582686394 0  0.5439623148931173 0.2040856076781014 0  0.5365194309847112 0.1999999999999436 0  0.547721884340339 0.19 0  0.5402535821032429 0.19 0  0.5701267910514778 0.21 0  0.5701267910515998 0.19 0  0.574400031298126 0.1945411130107761 0  0.5887471324735476 0.1946190227059995 0  0.5551901865771842 0.21 0  0.5514560354586301 0.2056971942287897 0  0.5551901865773963 0.19 0  0.5743797868482748 0.2056178169806182 0  0.5511851248594936 0.1945772515115504 0  0.5365194309847112 0.1943028057711659 0  0.54772188434007 0.21 0  0.594380730180568 0.1966558399668133 0  0.5775950932886138 0.21 0  0.5327852798661811 0.19 0  0.6 0.1950000000000217 0  0.6244559818022579 0.1024805481876779 0  0.6331542554485198 0.1311064488920115 0  0.604876951083344 0.1323679928240978 0  0.5950070799606315 0.1111116928105405 0  0.5805147821309363 0.1750906865638377 0  0.5830971905392573 0.1610562557540074 0  0.5891905322413319 0.173297484523883 0  0.6385847074107548 0.1562173919888177 0  0.6641520523959832 0.1503720468916702 0  0.5857082964501902 0.1444062384003248 0  0.5690392421172527 0.1384821647678796 0  0.5733051421814971 0.1505504706653721 0  0.596265848881445 0.1672046255295837 0  0.5813292444072671 0.1834697536045245 0  0.5742993681899213 0.1835891178222343 0  0.5975491358239944 0.1534040596821995 0  0.5439877332217901 0.1676928600783786 0  0.5349004284018322 0.1565876018036672 0  0.5520209547307013 0.1576841814684212 0  0.6065875229028267 0.1922148945199381 0  0.5688911489504639 0.2221570651130901 0  0.5600714413167317 0.2168050759646857 0  0.5668496426355557 0.2152032773847839 0  0.5691769360607744 0.103623921999164 0  0.5817033662356486 0.1258684224449203 0  0.5656709189996393 0.1218263852353965 0  0.5666635607831564 0.161267807310367 0  0.5731424580414761 0.1690378585407531 0  0.5588244563271773 0.225349035787779 0  0.5519051872593019 0.2166420053265535 0  0.59743928374328 0.184845006919697 0  0.6044284617508302 0.1869248475987405 0  0.5701061294197327 0.1769562172296277 0  0.5448392573395288 0.1456266733529302 0  0.560873207311089 0.1493935172983297 0  0.6153880197825543 0.1501582873444675 0  0.605300577487017 0.1810288040931519 0  0.5966020906539898 0.1778579871513863 0  0.595034110037278 0.08371649311769892 0  0.6580228992389956 0.1177787934340178 0  0.5536582001352554 0.1343709232030346 0  0.5595716197895517 0.176498756977387 0  0.566392639933061 0.1840461062417861 0  0.6083886978654316 0.1626240187349565 0  0.5888145049962641 0.182376060046032 0  0.559009501696121 0.184247465949259 0  0.6154136810599321 0.175174545882801 0  0.6039303205755 0.1726140165641641 0  0.6229518475759098 0.1637562961874416 0  0.5366299525895074 0.1825690825227473 0  0.5514474833664602 0.1826065372792922 0  0.6341710204839701 0.1765827244303529 0  0.6209583882721262 0.1847010880111589 0  0.5653857196022115 0.1707921017691255 0  0.5316967135713353 0.1673421178078786 0  0.5562468381785084 0.1675066640297715 0  0.5439877332217904 0.1783210023422619 0  0.5371890579013414 0.1744210598886847 0  0.5509385065020694 0.1745004300116409 0  0.5294745265341012 0.1761054820336709 0  0.5740261188292279 0.2158012409855351 0  0.5439877332217911 0.1852618121745313 0  0.5666194772443838 0.07265723178580256 0  0.5932743238853959 0.04945528001359441 0  0.6112872589661165 0.1855979267337469 0  </DataArray>
</Points>
<Cells>
<DataArray  type="UInt32"  Name="connectivity"  format="ascii">0 1 2  3 1 4  0 1 5  3 1 6  7 8 9  10 11 12  13 14 11  15 11 12  16 17 18  19 17 18  20 21 17  0 22 5  23 3 4  14 11 24  13 11 25  26 0 2  15 11 24  10 11 25  16 18 27  3 28 6  15 12 29  20 17 30  21 17 31  16 17 30  19 17 31  16 2 6  1 2 6  32 18 27  15 4 5  1 4 5  8 33 9  34 12 29  16 6 30  8 13 25  14 23 24  22 34 29  32 26 27  28 20 30  21 35 31  36 33 9  28 6 30  16 2 27  26 2 27  7 36 9  8 33 25  22 5 29  23 4 24  10 33 25  15 4 24  15 5 29  37 38 39  37 40 39  41 42 43  44 38 45  46 47 48  49 42 43  41 50 51  46 39 52  53 54 55  7 36 56  57 58 59  60 61 62  63 42 64  65 58 66  60 40 61  7 67 68  41 69 51  70 55 71  72 39 52  73 67 68  65 57 58  74 73 67  37 40 75  41 42 64  76 38 45  70 77 71  78 69 79  46 47 61  60 40 75  37 76 38  72 80 52  41 81 50  78 82 79  63 42 48  72 38 39  70 54 55  44 72 38  8 13 81  83 84 80  26 0 58  47 77 71  7 8 67  44 72 85  46 39 61  21 35 86  28 20 87  83 88 89  49 74 43  41 81 43  8 81 67  41 69 64  78 69 90  53 54 91  53 55 92  78 87 82  49 42 52  13 14 50  83 80 85  7 56 68  3 28 82  46 42 48  49 74 84  13 81 50  74 73 84  26 58 66  32 26 66  0 58 59  83 88 85  63 55 92  28 87 82  53 93 94  53 93 95  96 86 94  23 3 79  74 81 67  22 34 97  78 87 95  21 86 98  20 87 98  14 23 51  60 75 99  49 84 80  53 94 91  0 22 59  83 73 84  53 95 92  49 80 52  40 39 61  14 50 51  74 81 43  3 82 79  78 92 90  100 75 99  63 92 90  23 79 51  22 97 59  63 55 71  20 21 98  47 61 62  46 42 52  93 86 94  83 73 101  93 87 95  96 94 91  93 86 98  44 88 85  93 87 98  56 68 101  78 95 92  47 62 77  83 89 101  63 48 71  57 97 59  69 79 51  72 80 85  69 64 90  47 48 71  63 64 90  73 68 101  </DataArray>
<DataArray  type="UInt32"  Name="offsets"  format="ascii">3 6 9 12 15 18 21 24 27 30 33 36 39 42 45 48 51 54 57 60 63 66 69 72 75 78 81 84 87 90 93 96 99 102 105 108 111 114 117 120 123 126 129 132 135 138 141 144 147 150 153 156 159 162 165 168 171 174 177 180 183 186 189 192 195 198 201 204 207 210 213 216 219 222 225 228 231 234 237 240 243 246 249 252 255 258 261 264 267 270 273 276 279 282 285 288 291 294 297 300 303 306 309 312 315 318 321 324 327 330 333 336 339 342 345 348 351 354 357 360 363 366 369 372 375 378 381 384 387 390 393 396 399 402 405 408 411 414 417 420 423 426 429 432 435 438 441 444 447 450 453 456 459 462 465 468 471 474 477 480 483 486 489 492 495 498 501 504 507 </DataArray>
<DataArray  type="UInt8"  Name="types"  format="ascii">5 5 5 5 5 5 5 5 5 5 5 5 5 5 5 5 5 5 5 5 5 5 5 5 5 5 5 5 5 5 5 5 5 5 5 5 5 5 5 5 5 5 5 5 5 5 5 5 5 5 5 5 5 5 5 5 5 5 5 5 5 5 5 5 5 5 5 5 5 5 5 5 5 5 5 5 5 5 5 5 5 5 5 5 5 5 5 5 5 5 5 5 5 5 5 5 5 5 5 5 5 5 5 5 5 5 5 5 5 5 5 5 5 5 5 5 5 5 5 5 5 5 5 5 5 5 5 5 5 5 5 5 5 5 5 5 5 5 5 5 5 5 5 5 5 5 5 5 5 5 5 5 5 5 5 5 5 5 5 5 5 5 5 5 5 5 5 5 5 </DataArray>
</Cells>
<PointData  Vectors="f_43-1"> 
<DataArray  type="Float64"  Name="f_43-1"  NumberOfComponents="3" format="ascii">1.9842527344408972e-05 -1.0912605732852078e-04 0.0000000000000000e+00  -3.5223160727682173e-07 -1.0813190698304266e-04 0.0000000000000000e+00  7.2756250585352709e-06 -9.6691676056793744e-05 0.0000000000000000e+00  -2.0094937509290124e-05 -1.0459236483888705e-04 0.0000000000000000e+00  -8.3522877153655287e-06 -1.1836679169391641e-04 0.0000000000000000e+00  6.9200355704990793e-06 -1.2002625326120891e-04 0.0000000000000000e+00  -7.1113206779119652e-06 -9.4979794794616229e-05 0.0000000000000000e+00  -2.3717463601729966e-05 -1.7977914727623711e-04 0.0000000000000000e+00  -2.3026265947766514e-05 -1.6503929940368798e-04 0.0000000000000000e+00  -1.8104465145667539e-05 -1.7367458860698489e-04 0.0000000000000000e+00  -2.5179093481123298e-06 -1.5928064509317913e-04 0.0000000000000000e+00  -8.6231842326517972e-06 -1.4416690143097895e-04 0.0000000000000000e+00  6.3982791815530727e-06 -1.4531852766461704e-04 0.0000000000000000e+00  -2.2216553723751000e-05 -1.4990574891826067e-04 0.0000000000000000e+00  -2.1428567171932645e-05 -1.3476948662303809e-04 0.0000000000000000e+00  -8.1895213018115622e-07 -1.3062998382297130e-04 0.0000000000000000e+00  6.5390565166200300e-07 -8.3941010812840831e-05 0.0000000000000000e+00  -4.9498618017552557e-06 -6.8875427851922003e-05 0.0000000000000000e+00  8.8261708205574348e-06 -7.0598767832414258e-05 0.0000000000000000e+00  1.0184588536291536e-06 -5.4861639225294105e-05 0.0000000000000000e+00  -1.9044962958510185e-05 -7.4598325910435703e-05 0.0000000000000000e+00  -1.8596295640726458e-05 -5.9723627124054628e-05 0.0000000000000000e+00  1.9323255706055862e-05 -1.2397272207085417e-04 0.0000000000000000e+00  -2.0721582071327878e-05 -1.1966407056533308e-04 0.0000000000000000e+00  -1.2110952477134954e-05 -1.2923982922337119e-04 0.0000000000000000e+00  -1.3490172038316945e-05 -1.5823576609625301e-04 0.0000000000000000e+00  2.0242904827341322e-05 -9.4313025889145933e-05 0.0000000000000000e+00  1.1754847427850909e-05 -8.5844743583637914e-05 0.0000000000000000e+00  -1.9540146644426355e-05 -8.9564099188151939e-05 0.0000000000000000e+00  1.0086086319686628e-05 -1.3150836445643006e-04 0.0000000000000000e+00  -1.0273318492155607e-05 -8.2604089214073504e-05 0.0000000000000000e+00  -1.0052220618599811e-05 -5.3396568469506658e-05 0.0000000000000000e+00  2.0518511329823849e-05 -7.9554596815844972e-05 0.0000000000000000e+00  -1.0210463537574482e-05 -1.6995240057965464e-04 0.0000000000000000e+00  1.8685146469350061e-05 -1.3883497410062002e-04 0.0000000000000000e+00  -1.8185733085832906e-05 -4.4970535538445673e-05 0.0000000000000000e+00  -1.4219426300814555e-05 -1.8080995918588288e-04 0.0000000000000000e+00  -4.6684560576790151e-06 -4.3876903761391751e-05 0.0000000000000000e+00  -5.3273640186848352e-06 -6.0517674967216460e-05 0.0000000000000000e+00  -7.7426257484230159e-06 -6.4094772470808741e-05 0.0000000000000000e+00  -6.6592263649117793e-06 -4.7162206393261091e-05 0.0000000000000000e+00  -1.6926803422229184e-05 -1.1059900320485240e-04 0.0000000000000000e+00  -1.3452212609254525e-05 -9.0190816673925347e-05 0.0000000000000000e+00  -1.5686186253265258e-05 -1.1455580637005095e-04 0.0000000000000000e+00  -5.1893085817372500e-06 -7.5647006891199243e-05 0.0000000000000000e+00  -3.2092785001395786e-06 -6.0774550583129698e-05 0.0000000000000000e+00  -1.0575700677780383e-05 -7.1506773679195324e-05 0.0000000000000000e+00  -1.0669011355328931e-05 -5.7471032287779396e-05 0.0000000000000000e+00  -1.2222808420159676e-05 -7.1082329417376049e-05 0.0000000000000000e+00  -1.3035317113547044e-05 -1.0518819466064998e-04 0.0000000000000000e+00  -1.9513220001724010e-05 -1.2814770110412501e-04 0.0000000000000000e+00  -1.9317589674964190e-05 -1.1707794795685467e-04 0.0000000000000000e+00  -1.0623663987995737e-05 -8.4946523694690677e-05 0.0000000000000000e+00  -1.5214615633584827e-05 -5.3967661944381809e-05 0.0000000000000000e+00  -1.3369735902309270e-05 -3.6876158307369381e-05 0.0000000000000000e+00  -1.3760612124565695e-05 -5.7592520544711062e-05 0.0000000000000000e+00  -1.0630266894958665e-05 -1.5243140903046685e-04 0.0000000000000000e+00  1.6495290093504621e-05 -1.0378975012276829e-04 0.0000000000000000e+00  1.8363543744386966e-05 -9.6382046360423204e-05 0.0000000000000000e+00  1.8279413777532859e-05 -1.1024185008025496e-04 0.0000000000000000e+00  -6.9410221791441068e-06 -3.5752473371254507e-05 0.0000000000000000e+00  -8.6419637763225827e-06 -5.3860340477315866e-05 0.0000000000000000e+00  -8.8042490404562064e-06 -4.4170256339188109e-05 0.0000000000000000e+00  -1.4270334786377290e-05 -7.6641188085229629e-05 0.0000000000000000e+00  -1.5674434910468237e-05 -9.2943283583005800e-05 0.0000000000000000e+00  1.6550985505711026e-05 -8.5191030104614024e-05 0.0000000000000000e+00  1.8807364416187125e-05 -8.2205178706459817e-05 0.0000000000000000e+00  -1.8653209060343370e-05 -1.4956730611294185e-04 0.0000000000000000e+00  -1.4333258046863894e-05 -1.4766889231992986e-04 0.0000000000000000e+00  -1.7511069395904576e-05 -1.0027730034233132e-04 0.0000000000000000e+00  -1.1992128818223180e-05 -4.2772223381035122e-05 0.0000000000000000e+00  -1.2425884316824792e-05 -6.0134148946246827e-05 0.0000000000000000e+00  -7.9437854831654408e-06 -7.9829404032571530e-05 0.0000000000000000e+00  -1.3061645592751893e-05 -1.3086495624612125e-04 0.0000000000000000e+00  -1.5701809491818043e-05 -1.2770075369609077e-04 0.0000000000000000e+00  -4.7115454054664119e-06 -3.2035878531504530e-05 0.0000000000000000e+00  -3.4544453267732185e-06 -4.7787825781586112e-05 0.0000000000000000e+00  -1.0495272592017498e-05 -4.4137693707710505e-05 0.0000000000000000e+00  -1.7169170053482476e-05 -8.3965768122762634e-05 0.0000000000000000e+00  -1.9040367802537379e-05 -1.0414631469802701e-04 0.0000000000000000e+00  -9.9836405216739345e-06 -9.6252112005265508e-05 0.0000000000000000e+00  -1.8946274912246299e-05 -1.3557601172561252e-04 0.0000000000000000e+00  -1.8680914495238027e-05 -9.1183056599180256e-05 0.0000000000000000e+00  -8.9252453816966853e-06 -1.0938102873237893e-04 0.0000000000000000e+00  -1.2250416762201665e-05 -1.1401085063405976e-04 0.0000000000000000e+00  -7.2857515469433490e-06 -9.0439915888306107e-05 0.0000000000000000e+00  -1.7262754414354712e-05 -4.9676765240065085e-05 0.0000000000000000e+00  -1.7981884468544251e-05 -7.6114667854840465e-05 0.0000000000000000e+00  -4.9447193432982782e-06 -9.2393239166323473e-05 0.0000000000000000e+00  -6.4720765035048310e-06 -1.1349459476983238e-04 0.0000000000000000e+00  -1.6122762644699589e-05 -8.5878711621964040e-05 0.0000000000000000e+00  -1.4802369705734674e-05 -3.6355717965789136e-05 0.0000000000000000e+00  -1.5424645273489037e-05 -7.0564561989241111e-05 0.0000000000000000e+00  -1.6920507572688467e-05 -6.0275781779794596e-05 0.0000000000000000e+00  -1.6040664798017233e-05 -4.7230230290666623e-05 0.0000000000000000e+00  -1.6534482257227694e-05 -6.8819238136432915e-05 0.0000000000000000e+00  -1.5986535524321969e-05 -3.5424387907466034e-05 0.0000000000000000e+00  1.7508630229446750e-05 -1.2168261201908596e-04 0.0000000000000000e+00  -1.8050764037980583e-05 -6.4397784735478815e-05 0.0000000000000000e+00  -4.5359391638086877e-06 -2.1950081863562619e-05 0.0000000000000000e+00  -2.6741540216014947e-06 -1.7291325990461036e-05 0.0000000000000000e+00  -9.7946917695182754e-06 -1.3039447686870225e-04 0.0000000000000000e+00  </DataArray> 
</PointData> 
</Piece>
</UnstructuredGrid>
</VTKFile>