<?xml version="1.0"?>
<VTKFile type="UnstructuredGrid"  version="0.1"  >
<UnstructuredGrid>
<Piece  NumberOfPoints="101" NumberOfCells="169">
<Points>
<DataArray  type="Float64"  NumberOfComponents="3"  format="ascii">0.6 0.21 0  0.5925316977628483 0.21 0  0.5955705746706843 0.2069223055301326 0  0.5887803774232762 0.2001272386983733 0  0.5814408164431408 0.2041285596160068 0  0.5893814947531364 0.2056233639521408 0  0.6 0.2 0  0.6 0.1950000000000217 0  0.594380730180568 0.1966558399668133 0  0.5946539510196798 0.2024302972968126 0  0.6 0.2050000000000054 0  0.5775950932886138 0.21 0  0.5850633955257281 0.21 0  0.6300528284996487 0.2292604486710743 0  0.65429728832161 0.2353880751391984 0  0.6456429596876728 0.2209784072651823 0  0.5740383564454857 0.232486177523615 0  0.5800331369475803 0.2220172718503647 0  0.5872716114964233 0.2289047791562547 0  0.589683001657349 0.3059206033515077 0  0.629251049118315 0.3129131677620721 0  0.6129037791821019 0.2898142990521698 0  0.5669464924360815 0.2475839849813879 0  0.5841951273902199 0.2421589553533847 0  0.5678918321244223 0.2848057098346606 0  0.5916500441695769 0.2809526698769227 0  0.5813292444071699 0.2563523755659055 0  0.5593867837568711 0.2625481287604455 0  0.6158241656144056 0.2465955912391796 0  0.6368758304361363 0.2529361994816268 0  0.6156282497854896 0.2673949998438289 0  0.5926483197196849 0.2655989755524508 0  0.6034720826395079 0.3406552446218118 0  0.5561563723763112 0.3041501920577169 0  0.7014764931779993 0.1925000000000107 0  0.685561679424891 0.2295161340218305 0  0.6773925486195326 0.2026632733038183 0  0.6622141672544596 0.2596384679938497 0  0.5683897549737816 0.3290580395153129 0  0.6341981541449615 0.3582841585921612 0  0.6186516859309905 0.2076004596739355 0  0.6330574554272607 0.20858417289079 0  0.6200567937109939 0.1981193972299755 0  0.5688911489504639 0.2221570651130901 0  0.6659720908852078 0.2972353895876497 0  0.6940661166801609 0.2673943882596362 0  0.5989004035231642 0.2514987524731583 0  0.596265848881424 0.2354323641502947 0  0.6295540558938247 0.1924839069479658 0  0.6341710204839701 0.1765827244303529 0  0.6426099985752125 0.1947200777786613 0  0.615208009837415 0.2301771304243292 0  0.5487739828661812 0.2837987172973246 0  0.6210712537558437 0.2177951339896733 0  0.6711932754123612 0.1788117674793375 0  0.6570334029219593 0.3356135508988682 0  0.5631143150331265 0.2366473934541688 0  0.5768392741880191 0.2703425200264898 0  0.6100254542261326 0.2029134597827689 0  0.6109529519469615 0.19670324045761 0  0.5740261188292279 0.2158012409855351 0  0.6035153318756115 0.216380925869335 0  0.6045977536612152 0.2079044120944432 0  0.6993284284288891 0.3008982894693075 0  0.6641604129055072 0.2170430078016702 0  0.7176052736190859 0.2162836958912044 0  0.5962264926010817 0.2155692304460942 0  0.5886496198982827 0.2178532325665078 0  0.5869673343225223 0.41 0  0.5770529515268702 0.3629450529032476 0  0.6084037118460524 0.3780069571238127 0  0.5963374227678123 0.2233833965505087 0  0.6048429996566183 0.2280441552220857 0  0.7236859362722395 0.2517828338101294 0  0.6916151138480078 0.41 0  0.7140255670996881 0.3646166311524474 0  0.6689331958774321 0.3716842215281515 0  0.6209583882721262 0.1847010880111589 0  0.6140419833156984 0.1920012542761988 0  0.6389246510848009 0.278450010052455 0  0.6902890633484133 0.332151151267615 0  0.6065875229028267 0.1922148945199381 0  0.6047562880647869 0.1975000000000114 0  0.6104992711520371 0.2118453231978703 0  0.6513011150928492 0.1835167781725089 0  0.6503345442188976 0.208122535960376 0  0.6603908909116775 0.196660215430242 0  0.6107068242365286 0.2205343762889329 0  0.6065667631161428 0.2400998453881159 0  0.556227780909367 0.2515606281824664 0  0.6383613676644679 0.41 0  0.5588244563271773 0.225349035787779 0  0.5662965898088369 0.2290837557773043 0  0.7294932489647475 0.2840789881590486 0  0.5811564300792245 0.2152441767609544 0  0.6043492189278221 0.2025000000000026 0  0.6537520553764576 0.1680442900620985 0  0.6385847074107548 0.1562173919888177 0  0.6641520523959832 0.1503720468916702 0  0.6112872589661165 0.1855979267337469 0  0.7279457694224267 0.3237962213587685 0  </DataArray>
</Points>
<Cells>
<DataArray  type="UInt32"  Name="connectivity"  format="ascii">0 1 2  3 4 5  6 7 8  6 9 8  6 10 9  9 2 5  1 2 5  11 12 4  12 4 5  10 9 2  12 1 5  3 9 5  3 9 8  0 10 2  13 14 15  16 17 18  19 20 21  16 22 23  19 24 25  26 27 22  13 28 29  30 25 31  19 20 32  19 24 33  16 23 18  34 35 36  37 35 14  13 14 29  19 32 38  20 32 39  40 41 42  16 17 43  37 44 45  30 46 31  47 46 23  48 49 50  13 28 51  24 27 52  13 41 53  34 54 36  55 20 39  16 22 56  40 41 53  48 41 42  26 27 57  58 42 59  26 22 23  17 43 60  30 25 21  0 61 62  63 44 45  19 38 33  30 28 46  35 14 64  34 35 65  0 1 66  12 1 67  68 69 70  71 61 72  24 25 57  47 23 18  69 32 38  37 35 45  73 35 65  71 67 18  26 46 23  55 20 44  74 75 76  73 35 45  47 71 18  48 49 77  78 77 42  17 67 18  20 21 79  30 21 79  55 76 80  13 41 15  19 25 21  75 76 80  7 81 82  40 83 53  84 49 50  47 71 72  1 67 66  85 64 86  40 58 42  20 44 79  85 15 64  87 83 53  47 46 88  22 56 89  24 27 57  90 70 39  91 43 92  63 45 93  0 66 61  69 32 70  6 7 82  90 76 39  12 67 94  90 68 70  55 44 80  30 28 29  40 58 83  73 45 93  17 60 94  48 41 50  87 61 72  74 90 76  78 42 59  71 66 61  71 67 66  37 44 79  85 50 86  63 44 80  6 10 95  85 41 15  16 43 92  58 83 62  36 64 86  48 77 42  35 36 64  11 12 94  37 14 29  14 15 64  84 50 86  26 57 31  27 22 89  54 36 86  0 10 62  84 49 96  85 41 50  83 61 62  91 56 92  25 57 31  97 98 96  24 52 33  17 67 94  11 60 94  26 46 31  6 82 95  97 49 96  28 46 88  58 95 62  28 51 88  55 76 39  54 98 96  54 84 86  16 56 92  30 29 79  32 70 39  58 82 95  87 51 53  78 77 99  72 51 88  78 81 99  10 95 62  63 100 80  54 84 96  87 72 51  47 72 88  63 100 93  37 29 79  58 82 59  75 100 80  87 83 61  78 81 59  81 82 59  13 51 53  </DataArray>
<DataArray  type="UInt32"  Name="offsets"  format="ascii">3 6 9 12 15 18 21 24 27 30 33 36 39 42 45 48 51 54 57 60 63 66 69 72 75 78 81 84 87 90 93 96 99 102 105 108 111 114 117 120 123 126 129 132 135 138 141 144 147 150 153 156 159 162 165 168 171 174 177 180 183 186 189 192 195 198 201 204 207 210 213 216 219 222 225 228 231 234 237 240 243 246 249 252 255 258 261 264 267 270 273 276 279 282 285 288 291 294 297 300 303 306 309 312 315 318 321 324 327 330 333 336 339 342 345 348 351 354 357 360 363 366 369 372 375 378 381 384 387 390 393 396 399 402 405 408 411 414 417 420 423 426 429 432 435 438 441 444 447 450 453 456 459 462 465 468 471 474 477 480 483 486 489 492 495 498 501 504 507 </DataArray>
<DataArray  type="UInt8"  Name="types"  format="ascii">5 5 5 5 5 5 5 5 5 5 5 5 5 5 5 5 5 5 5 5 5 5 5 5 5 5 5 5 5 5 5 5 5 5 5 5 5 5 5 5 5 5 5 5 5 5 5 5 5 5 5 5 5 5 5 5 5 5 5 5 5 5 5 5 5 5 5 5 5 5 5 5 5 5 5 5 5 5 5 5 5 5 5 5 5 5 5 5 5 5 5 5 5 5 5 5 5 5 5 5 5 5 5 5 5 5 5 5 5 5 5 5 5 5 5 5 5 5 5 5 5 5 5 5 5 5 5 5 5 5 5 5 5 5 5 5 5 5 5 5 5 5 5 5 5 5 5 5 5 5 5 5 5 5 5 5 5 5 5 5 5 5 5 5 5 5 5 5 5 </DataArray>
</Cells>
<PointData  Vectors="f_43-1"> 
<DataArray  type="Float64"  Name="f_43-1"  NumberOfComponents="3" format="ascii">-5.9570751347248543e-06 -4.1190561260083552e-05 0.0000000000000000e+00  -5.5027566207255445e-06 -4.0019235661126522e-05 0.0000000000000000e+00  -6.1926604941162520e-06 -4.0187527984636311e-05 0.0000000000000000e+00  -6.7280688831802104e-06 -3.8623433839724961e-05 0.0000000000000000e+00  -5.6354288819801919e-06 -3.7918702434548704e-05 0.0000000000000000e+00  -5.9564825447420879e-06 -3.9181634125888399e-05 0.0000000000000000e+00  -7.5558684424995153e-06 -4.0237271036347176e-05 0.0000000000000000e+00  -8.2524177694591583e-06 -3.9766587192760552e-05 0.0000000000000000e+00  -7.6299042221392224e-06 -3.9139539633586167e-05 0.0000000000000000e+00  -6.8174057871554382e-06 -3.9670627249448330e-05 0.0000000000000000e+00  -6.8059360733260732e-06 -4.0709979791151037e-05 0.0000000000000000e+00  -4.5136972245887402e-06 -3.7903815772127129e-05 0.0000000000000000e+00  -5.0081012886036787e-06 -3.8958140996053952e-05 0.0000000000000000e+00  -3.5001100657381093e-06 -2.2212658836707040e-05 0.0000000000000000e+00  -2.7582207492612151e-06 -1.6972948368126942e-05 0.0000000000000000e+00  -3.2798029365153128e-06 -1.9656533501351006e-05 0.0000000000000000e+00  -3.2618082543696040e-06 -2.9218470985894037e-05 0.0000000000000000e+00  -3.9802286544139242e-06 -3.3135545779565009e-05 0.0000000000000000e+00  -3.8312183530790153e-06 -3.0406790669233970e-05 0.0000000000000000e+00  -1.4276180758820090e-06 -1.2843476660860160e-05 0.0000000000000000e+00  -1.3700493504205759e-06 -1.0401644261655034e-05 0.0000000000000000e+00  -1.8316352399131845e-06 -1.4372895884482853e-05 0.0000000000000000e+00  -2.5311346081008350e-06 -2.4754371951957008e-05 0.0000000000000000e+00  -3.1168123317240458e-06 -2.6116132271012708e-05 0.0000000000000000e+00  -1.6484040419397160e-06 -1.6733204222705872e-05 0.0000000000000000e+00  -1.9659521159401769e-06 -1.6910582046121447e-05 0.0000000000000000e+00  -2.5483396270212513e-06 -2.2440182765289524e-05 0.0000000000000000e+00  -1.9757651223467360e-06 -2.1113962352757622e-05 0.0000000000000000e+00  -3.0774652869959179e-06 -2.1737771884045961e-05 0.0000000000000000e+00  -2.6446351387160739e-06 -1.7669095840740525e-05 0.0000000000000000e+00  -2.3935702146867235e-06 -1.7818958223409614e-05 0.0000000000000000e+00  -2.3870331878534992e-06 -1.9865180374041390e-05 0.0000000000000000e+00  -9.0276261176376152e-07 -7.8168842391375545e-06 0.0000000000000000e+00  -1.1859175132910266e-06 -1.3475317400906667e-05 0.0000000000000000e+00  -2.0990154981424390e-06 -1.1537333765875777e-05 0.0000000000000000e+00  -2.2169580381047349e-06 -1.2965238664508396e-05 0.0000000000000000e+00  -2.5932144232769530e-06 -1.4583752836428399e-05 0.0000000000000000e+00  -2.1653561694267282e-06 -1.3816708918654660e-05 0.0000000000000000e+00  -9.3444917342765145e-07 -9.8043158579462837e-06 0.0000000000000000e+00  -6.6984799849552028e-07 -5.1859329634197413e-06 0.0000000000000000e+00  -4.8962328037857039e-06 -2.8615631732649329e-05 0.0000000000000000e+00  -4.0476191531938896e-06 -2.3503343298189713e-05 0.0000000000000000e+00  -5.1281665477746770e-06 -2.8187230533905899e-05 0.0000000000000000e+00  -3.4785106763483889e-06 -3.2402917422519828e-05 0.0000000000000000e+00  -1.4966459088742109e-06 -1.0014365955089680e-05 0.0000000000000000e+00  -1.6712351318658545e-06 -1.0205531910608935e-05 0.0000000000000000e+00  -2.9066486919405564e-06 -2.2616698598245375e-05 0.0000000000000000e+00  -3.6135235843485395e-06 -2.7356686547999797e-05 0.0000000000000000e+00  -4.4935135935824477e-06 -2.4425714200977371e-05 0.0000000000000000e+00  -4.0902220423420407e-06 -2.1559617953142515e-05 0.0000000000000000e+00  -3.7828356897346573e-06 -2.0951356789641654e-05 0.0000000000000000e+00  -3.8067579738925724e-06 -2.5493937291751447e-05 0.0000000000000000e+00  -1.3929260694420505e-06 -1.6793198458715041e-05 0.0000000000000000e+00  -4.2669568890782165e-06 -2.6392816823189234e-05 0.0000000000000000e+00  -2.7614307990439673e-06 -1.4975931121604951e-05 0.0000000000000000e+00  -9.5962492796247760e-07 -6.8196098067067093e-06 0.0000000000000000e+00  -2.7476842242581955e-06 -2.7588922814839532e-05 0.0000000000000000e+00  -2.0861873137417794e-06 -1.9428345474173203e-05 0.0000000000000000e+00  -5.8888635905986413e-06 -3.3286915406515705e-05 0.0000000000000000e+00  -6.1114493594482469e-06 -3.2496644021087810e-05 0.0000000000000000e+00  -4.0095966819465320e-06 -3.5148660069136322e-05 0.0000000000000000e+00  -5.0029671470793311e-06 -3.3577943703682067e-05 0.0000000000000000e+00  -5.9402115352150722e-06 -3.6509166784101855e-05 0.0000000000000000e+00  -1.2278393365378933e-06 -7.7017876932960226e-06 0.0000000000000000e+00  -2.8169188666463045e-06 -1.6408774884720642e-05 0.0000000000000000e+00  -1.7747494637955059e-06 -9.9354579703542468e-06 0.0000000000000000e+00  -5.0712108750171079e-06 -3.6193385287167131e-05 0.0000000000000000e+00  -4.6065838461708543e-06 -3.5214033549567786e-05 0.0000000000000000e+00  0.0000000000000000e+00 0.0000000000000000e+00 0.0000000000000000e+00  -5.3745819626523727e-07 -5.4203895079775598e-06 0.0000000000000000e+00  -3.9931971829605876e-07 -3.4459352367632701e-06 0.0000000000000000e+00  -4.3791688813231884e-06 -3.1940325784781438e-05 0.0000000000000000e+00  -4.0683441819150570e-06 -2.8484834941088660e-05 0.0000000000000000e+00  -1.4911191866401830e-06 -8.6152538988525071e-06 0.0000000000000000e+00  0.0000000000000000e+00 0.0000000000000000e+00 0.0000000000000000e+00  -4.6566555304410106e-07 -2.9524363673259927e-06 0.0000000000000000e+00  -4.6397503529032736e-07 -3.2562085812426711e-06 0.0000000000000000e+00  -5.0522654754871423e-06 -2.6316845391582096e-05 0.0000000000000000e+00  -5.8024102253613229e-06 -3.0263007277506998e-05 0.0000000000000000e+00  -2.0122856374444048e-06 -1.4084882450449186e-05 0.0000000000000000e+00  -8.9947928530417213e-07 -5.8845650676839613e-06 0.0000000000000000e+00  -6.8800958856448383e-06 -3.4322634772751744e-05 0.0000000000000000e+00  -7.0046944617149705e-06 -3.6490133006455179e-05 0.0000000000000000e+00  -5.1464051980886750e-06 -3.1829156421725815e-05 0.0000000000000000e+00  -3.4161862111089941e-06 -1.8537393567562623e-05 0.0000000000000000e+00  -3.3459498747149740e-06 -1.9237039198338235e-05 0.0000000000000000e+00  -3.0960670874411572e-06 -1.7283013342459150e-05 0.0000000000000000e+00  -4.4789240590468644e-06 -2.9309333108709863e-05 0.0000000000000000e+00  -3.4039404989330067e-06 -2.4615120937087121e-05 0.0000000000000000e+00  -2.1490951592713786e-06 -2.3510714247833946e-05 0.0000000000000000e+00  0.0000000000000000e+00 0.0000000000000000e+00 0.0000000000000000e+00  -2.9173415043057969e-06 -3.0571941254249329e-05 0.0000000000000000e+00  -3.1108238457937685e-06 -2.9981725734503874e-05 0.0000000000000000e+00  -1.1775000277195417e-06 -6.9516305184161079e-06 0.0000000000000000e+00  -4.4262260959720503e-06 -3.6055320076566149e-05 0.0000000000000000e+00  -6.5912138441161099e-06 -3.7106649742155790e-05 0.0000000000000000e+00  -3.1929042148124115e-06 -1.6965849536683758e-05 0.0000000000000000e+00  -3.4662929888045828e-06 -1.8035011196578840e-05 0.0000000000000000e+00  -2.6622693035550010e-06 -1.4000589647969133e-05 0.0000000000000000e+00  -5.9814490074035286e-06 -3.0063714378383715e-05 0.0000000000000000e+00  -8.2525132821009457e-07 -5.0158240921737519e-06 0.0000000000000000e+00  </DataArray> 
</PointData> 
</Piece>
</UnstructuredGrid>
</VTKFile>