<?xml version="1.0"?>
<VTKFile type="UnstructuredGrid"  version="0.1"  >
<UnstructuredGrid>
<Piece  NumberOfPoints="101" NumberOfCells="169">
<Points>
<DataArray  type="Float64"  NumberOfComponents="3"  format="ascii">0.6 0.21 0  0.5925316977628483 0.21 0  0.5955705746706843 0.2069223055301326 0  0.5887803774232762 0.2001272386983733 0  0.5814408164431408 0.2041285596160068 0  0.5893814947531364 0.2056233639521408 0  0.6 0.2 0  0.6 0.1950000000000217 0  0.594380730180568 0.1966558399668133 0  0.5946539510196798 0.2024302972968126 0  0.6 0.2050000000000054 0  0.5775950932886138 0.21 0  0.5850633955257281 0.21 0  0.6300528284996487 0.2292604486710743 0  0.65429728832161 0.2353880751391984 0  0.6456429596876728 0.2209784072651823 0  0.5740383564454857 0.232486177523615 0  0.5800331369475803 0.2220172718503647 0  0.5872716114964233 0.2289047791562547 0  0.589683001657349 0.3059206033515077 0  0.629251049118315 0.3129131677620721 0  0.6129037791821019 0.2898142990521698 0  0.5669464924360815 0.2475839849813879 0  0.5841951273902199 0.2421589553533847 0  0.5678918321244223 0.2848057098346606 0  0.5916500441695769 0.2809526698769227 0  0.5813292444071699 0.2563523755659055 0  0.5593867837568711 0.2625481287604455 0  0.6158241656144056 0.2465955912391796 0  0.6368758304361363 0.2529361994816268 0  0.6156282497854896 0.2673949998438289 0  0.5926483197196849 0.2655989755524508 0  0.6034720826395079 0.3406552446218118 0  0.5561563723763112 0.3041501920577169 0  0.7014764931779993 0.1925000000000107 0  0.685561679424891 0.2295161340218305 0  0.6773925486195326 0.2026632733038183 0  0.6622141672544596 0.2596384679938497 0  0.5683897549737816 0.3290580395153129 0  0.6341981541449615 0.3582841585921612 0  0.6186516859309905 0.2076004596739355 0  0.6330574554272607 0.20858417289079 0  0.6200567937109939 0.1981193972299755 0  0.5688911489504639 0.2221570651130901 0  0.6659720908852078 0.2972353895876497 0  0.6940661166801609 0.2673943882596362 0  0.5989004035231642 0.2514987524731583 0  0.596265848881424 0.2354323641502947 0  0.6295540558938247 0.1924839069479658 0  0.6341710204839701 0.1765827244303529 0  0.6426099985752125 0.1947200777786613 0  0.615208009837415 0.2301771304243292 0  0.5487739828661812 0.2837987172973246 0  0.6210712537558437 0.2177951339896733 0  0.6711932754123612 0.1788117674793375 0  0.6570334029219593 0.3356135508988682 0  0.5631143150331265 0.2366473934541688 0  0.5768392741880191 0.2703425200264898 0  0.6100254542261326 0.2029134597827689 0  0.6109529519469615 0.19670324045761 0  0.5740261188292279 0.2158012409855351 0  0.6035153318756115 0.216380925869335 0  0.6045977536612152 0.2079044120944432 0  0.6993284284288891 0.3008982894693075 0  0.6641604129055072 0.2170430078016702 0  0.7176052736190859 0.2162836958912044 0  0.5962264926010817 0.2155692304460942 0  0.5886496198982827 0.2178532325665078 0  0.5869673343225223 0.41 0  0.5770529515268702 0.3629450529032476 0  0.6084037118460524 0.3780069571238127 0  0.5963374227678123 0.2233833965505087 0  0.6048429996566183 0.2280441552220857 0  0.7236859362722395 0.2517828338101294 0  0.6916151138480078 0.41 0  0.7140255670996881 0.3646166311524474 0  0.6689331958774321 0.3716842215281515 0  0.6209583882721262 0.1847010880111589 0  0.6140419833156984 0.1920012542761988 0  0.6389246510848009 0.278450010052455 0  0.6902890633484133 0.332151151267615 0  0.6065875229028267 0.1922148945199381 0  0.6047562880647869 0.1975000000000114 0  0.6104992711520371 0.2118453231978703 0  0.6513011150928492 0.1835167781725089 0  0.6503345442188976 0.208122535960376 0  0.6603908909116775 0.196660215430242 0  0.6107068242365286 0.2205343762889329 0  0.6065667631161428 0.2400998453881159 0  0.556227780909367 0.2515606281824664 0  0.6383613676644679 0.41 0  0.5588244563271773 0.225349035787779 0  0.5662965898088369 0.2290837557773043 0  0.7294932489647475 0.2840789881590486 0  0.5811564300792245 0.2152441767609544 0  0.6043492189278221 0.2025000000000026 0  0.6537520553764576 0.1680442900620985 0  0.6385847074107548 0.1562173919888177 0  0.6641520523959832 0.1503720468916702 0  0.6112872589661165 0.1855979267337469 0  0.7279457694224267 0.3237962213587685 0  </DataArray>
</Points>
<Cells>
<DataArray  type="UInt32"  Name="connectivity"  format="ascii">0 1 2  3 4 5  6 7 8  6 9 8  6 10 9  9 2 5  1 2 5  11 12 4  12 4 5  10 9 2  12 1 5  3 9 5  3 9 8  0 10 2  13 14 15  16 17 18  19 20 21  16 22 23  19 24 25  26 27 22  13 28 29  30 25 31  19 20 32  19 24 33  16 23 18  34 35 36  37 35 14  13 14 29  19 32 38  20 32 39  40 41 42  16 17 43  37 44 45  30 46 31  47 46 23  48 49 50  13 28 51  24 27 52  13 41 53  34 54 36  55 20 39  16 22 56  40 41 53  48 41 42  26 27 57  58 42 59  26 22 23  17 43 60  30 25 21  0 61 62  63 44 45  19 38 33  30 28 46  35 14 64  34 35 65  0 1 66  12 1 67  68 69 70  71 61 72  24 25 57  47 23 18  69 32 38  37 35 45  73 35 65  71 67 18  26 46 23  55 20 44  74 75 76  73 35 45  47 71 18  48 49 77  78 77 42  17 67 18  20 21 79  30 21 79  55 76 80  13 41 15  19 25 21  75 76 80  7 81 82  40 83 53  84 49 50  47 71 72  1 67 66  85 64 86  40 58 42  20 44 79  85 15 64  87 83 53  47 46 88  22 56 89  24 27 57  90 70 39  91 43 92  63 45 93  0 66 61  69 32 70  6 7 82  90 76 39  12 67 94  90 68 70  55 44 80  30 28 29  40 58 83  73 45 93  17 60 94  48 41 50  87 61 72  74 90 76  78 42 59  71 66 61  71 67 66  37 44 79  85 50 86  63 44 80  6 10 95  85 41 15  16 43 92  58 83 62  36 64 86  48 77 42  35 36 64  11 12 94  37 14 29  14 15 64  84 50 86  26 57 31  27 22 89  54 36 86  0 10 62  84 49 96  85 41 50  83 61 62  91 56 92  25 57 31  97 98 96  24 52 33  17 67 94  11 60 94  26 46 31  6 82 95  97 49 96  28 46 88  58 95 62  28 51 88  55 76 39  54 98 96  54 84 86  16 56 92  30 29 79  32 70 39  58 82 95  87 51 53  78 77 99  72 51 88  78 81 99  10 95 62  63 100 80  54 84 96  87 72 51  47 72 88  63 100 93  37 29 79  58 82 59  75 100 80  87 83 61  78 81 59  81 82 59  13 51 53  </DataArray>
<DataArray  type="UInt32"  Name="offsets"  format="ascii">3 6 9 12 15 18 21 24 27 30 33 36 39 42 45 48 51 54 57 60 63 66 69 72 75 78 81 84 87 90 93 96 99 102 105 108 111 114 117 120 123 126 129 132 135 138 141 144 147 150 153 156 159 162 165 168 171 174 177 180 183 186 189 192 195 198 201 204 207 210 213 216 219 222 225 228 231 234 237 240 243 246 249 252 255 258 261 264 267 270 273 276 279 282 285 288 291 294 297 300 303 306 309 312 315 318 321 324 327 330 333 336 339 342 345 348 351 354 357 360 363 366 369 372 375 378 381 384 387 390 393 396 399 402 405 408 411 414 417 420 423 426 429 432 435 438 441 444 447 450 453 456 459 462 465 468 471 474 477 480 483 486 489 492 495 498 501 504 507 </DataArray>
<DataArray  type="UInt8"  Name="types"  format="ascii">5 5 5 5 5 5 5 5 5 5 5 5 5 5 5 5 5 5 5 5 5 5 5 5 5 5 5 5 5 5 5 5 5 5 5 5 5 5 5 5 5 5 5 5 5 5 5 5 5 5 5 5 5 5 5 5 5 5 5 5 5 5 5 5 5 5 5 5 5 5 5 5 5 5 5 5 5 5 5 5 5 5 5 5 5 5 5 5 5 5 5 5 5 5 5 5 5 5 5 5 5 5 5 5 5 5 5 5 5 5 5 5 5 5 5 5 5 5 5 5 5 5 5 5 5 5 5 5 5 5 5 5 5 5 5 5 5 5 5 5 5 5 5 5 5 5 5 5 5 5 5 5 5 5 5 5 5 5 5 5 5 5 5 5 5 5 5 5 5 </DataArray>
</Cells>
<PointData  Vectors="f_43-1"> 
<DataArray  type="Float64"  Name="f_43-1"  NumberOfComponents="3" format="ascii">1.3225858010729729e-05 -2.6428399029576036e-04 0.0000000000000000e+00  1.3998556343383990e-05 -2.5671066457211988e-04 0.0000000000000000e+00  1.0483966418165231e-05 -2.5918560964253068e-04 0.0000000000000000e+00  4.5580485786289618e-06 -2.5139864331511077e-04 0.0000000000000000e+00  9.4282557333579284e-06 -2.4484721565772732e-04 0.0000000000000000e+00  9.9591103719691468e-06 -2.5288272775440200e-04 0.0000000000000000e+00  2.9320362525286852e-06 -2.6245365811068889e-04 0.0000000000000000e+00  -1.9228157053189305e-06 -2.6155470359354681e-04 0.0000000000000000e+00  4.0559242658668126e-07 -2.5637720458340264e-04 0.0000000000000000e+00  6.0565474675842519e-06 -2.5756319941118514e-04 0.0000000000000000e+00  7.9437409657866472e-06 -2.6335855247447952e-04 0.0000000000000000e+00  1.5722753057860640e-05 -2.4211490381742399e-04 0.0000000000000000e+00  1.4866940210646978e-05 -2.4940696857795187e-04 0.0000000000000000e+00  5.3648043446252538e-06 -1.4688340251101209e-04 0.0000000000000000e+00  3.8362213244463293e-06 -1.1382273039736006e-04 0.0000000000000000e+00  3.8526694611347524e-06 -1.3119807563290501e-04 0.0000000000000000e+00  1.2985927713300315e-05 -1.8785893897769711e-04 0.0000000000000000e+00  1.3621063042507769e-05 -2.1273035016252032e-04 0.0000000000000000e+00  1.1781601658487979e-05 -1.9621512925761065e-04 0.0000000000000000e+00  5.9800555186388944e-06 -8.4644259259983502e-05 0.0000000000000000e+00  4.0079194390486283e-06 -6.9637691544490425e-05 0.0000000000000000e+00  5.6785794082154682e-06 -9.5235722607965562e-05 0.0000000000000000e+00  1.1985121387157258e-05 -1.5950625395693731e-04 0.0000000000000000e+00  1.0847843446498594e-05 -1.6906389038726102e-04 0.0000000000000000e+00  8.5325411265580020e-06 -1.0894126499086622e-04 0.0000000000000000e+00  7.4018582403950023e-06 -1.1093479693121719e-04 0.0000000000000000e+00  9.9113582161665467e-06 -1.4572016620833812e-04 0.0000000000000000e+00  1.1030585338275242e-05 -1.3626810457240124e-04 0.0000000000000000e+00  6.9782946662900636e-06 -1.4292759771751898e-04 0.0000000000000000e+00  5.0998617134554212e-06 -1.1756050959199669e-04 0.0000000000000000e+00  6.3987353105888071e-06 -1.1766419538794363e-04 0.0000000000000000e+00  8.2898103835018771e-06 -1.2987927324958958e-04 0.0000000000000000e+00  3.5721755007247696e-06 -5.2053188265372053e-05 0.0000000000000000e+00  7.5105107353884070e-06 -8.7754401265634503e-05 0.0000000000000000e+00  1.6113573720073994e-06 -7.9484130725781383e-05 0.0000000000000000e+00  2.5384401941284458e-06 -8.8392272591027350e-05 0.0000000000000000e+00  2.1706995700863988e-06 -9.9178722272232764e-05 0.0000000000000000e+00  3.6589797625434971e-06 -9.3172944298148351e-05 0.0000000000000000e+00  5.2442756770373284e-06 -6.4412044974321487e-05 0.0000000000000000e+00  2.1066333783533707e-06 -3.4969551173054182e-05 0.0000000000000000e+00  4.6473559350277756e-06 -1.8811977455617589e-04 0.0000000000000000e+00  3.7401864967274136e-06 -1.5592861369372407e-04 0.0000000000000000e+00  2.7590764658583239e-06 -1.8618836088521052e-04 0.0000000000000000e+00  1.4868005101704365e-05 -2.0725792234921493e-04 0.0000000000000000e+00  3.1126065747108495e-06 -6.7918703279260304e-05 0.0000000000000000e+00  2.5091387598657387e-06 -6.9937149327261837e-05 0.0000000000000000e+00  8.5700080086738574e-06 -1.4769933964043418e-04 0.0000000000000000e+00  9.8852016639391567e-06 -1.7761608836799374e-04 0.0000000000000000e+00  2.1127154804504885e-06 -1.6249010013492905e-04 0.0000000000000000e+00  1.0663623145554515e-06 -1.4452599632023582e-04 0.0000000000000000e+00  2.3564716584773688e-06 -1.4017835349552145e-04 0.0000000000000000e+00  7.1640547586938370e-06 -1.6705022513995030e-04 0.0000000000000000e+00  9.5894428288468161e-06 -1.0857391047236388e-04 0.0000000000000000e+00  5.7050814498368505e-06 -1.7349620719811002e-04 0.0000000000000000e+00  1.5561598699990117e-06 -1.0192049892177160e-04 0.0000000000000000e+00  2.4315719724206790e-06 -4.6276634869224719e-05 0.0000000000000000e+00  1.3557829903253706e-05 -1.7693939947678236e-04 0.0000000000000000e+00  9.1370942628323952e-06 -1.2643262771700538e-04 0.0000000000000000e+00  4.3140209994570329e-06 -2.1791401466835248e-04 0.0000000000000000e+00  2.0037799706093002e-06 -2.1386668089411269e-04 0.0000000000000000e+00  1.5226747401485997e-05 -2.2471813154944175e-04 0.0000000000000000e+00  9.5983598465601612e-06 -2.1753622476657520e-04 0.0000000000000000e+00  7.8431984923578796e-06 -2.3684938551997640e-04 0.0000000000000000e+00  2.1322295864910035e-06 -5.3026295430121593e-05 0.0000000000000000e+00  2.9187625240838358e-06 -1.1067641174247820e-04 0.0000000000000000e+00  1.7065597778324036e-06 -6.8865859812594453e-05 0.0000000000000000e+00  1.2036584736075823e-05 -2.3315143640258699e-04 0.0000000000000000e+00  1.3043509456025719e-05 -2.2639547306308965e-04 0.0000000000000000e+00  0.0000000000000000e+00 0.0000000000000000e+00 0.0000000000000000e+00  2.8516703938388161e-06 -3.5869548560263482e-05 0.0000000000000000e+00  1.5897152688474382e-06 -2.3065679534845874e-05 0.0000000000000000e+00  1.0890233059315630e-05 -2.0651037393519994e-04 0.0000000000000000e+00  8.9041675819762837e-06 -1.8535990705005690e-04 0.0000000000000000e+00  1.8165917240845995e-06 -5.9860936406678705e-05 0.0000000000000000e+00  0.0000000000000000e+00 0.0000000000000000e+00 0.0000000000000000e+00  8.8741963382934100e-07 -2.0532867980671850e-05 0.0000000000000000e+00  1.1618522380114273e-06 -2.2256098624955999e-05 0.0000000000000000e+00  8.6414466568594617e-07 -1.7502660889242609e-04 0.0000000000000000e+00  1.1156623688186944e-06 -2.0004910646721869e-04 0.0000000000000000e+00  4.6247281774045921e-06 -9.4159495580466846e-05 0.0000000000000000e+00  1.8269775174364463e-06 -4.0453341126779853e-05 0.0000000000000000e+00  -4.8759861033039773e-07 -2.2648333532578009e-04 0.0000000000000000e+00  1.5282261419196267e-06 -2.3937045146237704e-04 0.0000000000000000e+00  6.8898451064854435e-06 -2.0757984537052824e-04 0.0000000000000000e+00  1.7245123663712166e-06 -1.2489686136084546e-04 0.0000000000000000e+00  3.0118172093227972e-06 -1.2890047935809780e-04 0.0000000000000000e+00  2.2526956919755081e-06 -1.1663002181833593e-04 0.0000000000000000e+00  7.7119026975795626e-06 -1.9118697387013060e-04 0.0000000000000000e+00  8.2254943828770522e-06 -1.6084268712134451e-04 0.0000000000000000e+00  1.2397596720617842e-05 -1.5109440680925238e-04 0.0000000000000000e+00  0.0000000000000000e+00 0.0000000000000000e+00 0.0000000000000000e+00  1.5402580423382242e-05 -1.9507616414430229e-04 0.0000000000000000e+00  1.4203767470464189e-05 -1.9203706230981482e-04 0.0000000000000000e+00  1.6599361143478435e-06 -4.8480208714368444e-05 0.0000000000000000e+00  1.4479059190349948e-05 -2.3099531302946087e-04 0.0000000000000000e+00  4.7798210729332767e-06 -2.4190546586653428e-04 0.0000000000000000e+00  1.1627674968111638e-06 -1.1489283599932852e-04 0.0000000000000000e+00  5.6721399140352881e-07 -1.2190577510999437e-04 0.0000000000000000e+00  8.5884959645255346e-07 -9.5620463053565472e-05 0.0000000000000000e+00  -3.5217545145971907e-07 -1.9935747765697514e-04 0.0000000000000000e+00  1.3475178152303537e-06 -3.5021695118771912e-05 0.0000000000000000e+00  </DataArray> 
</PointData> 
</Piece>
</UnstructuredGrid>
</VTKFile>