<?xml version="1.0"?>
<VTKFile type="UnstructuredGrid"  version="0.1"  >
<UnstructuredGrid>
<Piece  NumberOfPoints="103" NumberOfCells="170">
<Points>
<DataArray  type="Float64"  NumberOfComponents="3"  format="ascii">0.3012679105156187 0.19 0  0.3006558810093873 0.1999966199048318 0  0.2950977245127906 0.1961819304477774 0  0.301267910515333 0.21 0  0.2950977245128307 0.2038180695522663 0  0.2607803159922026 0.2000727136295815 0  0.2677053789419034 0.1964246479135325 0  0.267698176732111 0.2039977513680092 0  0.2751288526855082 0.20000000000002 0  0.2603913042767976 0.1945999920783741 0  0.2639263993299336 0.19 0  0.25 0.2 0  0.2497468076502589 0.2050254481002335 0  0.2550657455369551 0.2034088125358657 0  0.2825131256993216 0.2035478995978015 0  0.2825051229162361 0.1959834479681729 0  0.2894621222999649 0.1998691686390484 0  0.2713947015670686 0.19 0  0.2788630038040554 0.21 0  0.2863313060411479 0.21 0  0.2937996082784807 0.19 0  0.2937996082782405 0.21 0  0.2601812407614425 0.2056861609747042 0  0.2497468076502614 0.1949745518997913 0  0.2548908499171161 0.1966940311614271 0  0.2751288526855081 0.205697194228819 0  0.2751288526856362 0.1943028057711959 0  0.2895549462647731 0.1944069323160756 0  0.2564580970927985 0.19 0  0.2525889069107169 0.1926036384190297 0  0.2897864851748124 0.2055930218738881 0  0.25645809709277 0.21 0  0.25261805618068 0.2074135021971937 0  0.2639263993298655 0.21 0  0.271394701566961 0.21 0  0.2863313060413428 0.19 0  0.2788630038042048 0.19 0  0.2489897948556636 0.19 0  0.2489897948556636 0.21 0  0.2802365149396702 0.2293267412254819 0  0.2888197773682229 0.2217624015035644 0  0.2799011483571476 0.2201540359780956 0  0.2798983539554935 0.1725715317274126 0  0.2887875715604008 0.1784526411902859 0  0.2798265752054099 0.1801908109055989 0  0.2607466101664424 0.2266930975791233 0  0.271385042995999 0.2220255791858506 0  0.2640363109795177 0.2179944263838653 0  0.2544808243315743 0.2458504951732927 0  0.2658768459325225 0.2418747601129979 0  0.2588244756332078 0.23611127323402 0  0.2516468834717856 0.2324930308055588 0  0.2510679533716966 0.2249523323210773 0  0.2433956710264305 0.2381734167068584 0  0.2460613805257083 0.2485222416480207 0  0.2507569858396673 0.2399489856244889 0  0.2607333124992295 0.173299215235651 0  0.2711961111491841 0.1784474567953763 0  0.2640363109795686 0.1820055736160818 0  0.250265698216607 0.2591459325753045 0  0.2627897304119148 0.25271037528669 0  0.2397046897252064 0.2463916348380001 0  0.2693249379754523 0.232253714048252 0  0.246996525252926 0.2170682926548348 0  0.2561841824185058 0.2195000859865352 0  0.2469965252529372 0.1829317073451959 0  0.2561841824184873 0.1804999140134954 0  0.2510789311637825 0.1750218956597876 0  0.2854688561834498 0.2412236914981949 0  0.2752342263051384 0.2394149830158712 0  0.2897734241776366 0.2309782844302881 0  0.2352133972703547 0.2354967132658811 0  0.2400332147833751 0.2299556624715287 0  0.2898993665208313 0.2148884498665536 0  0.2825971549226016 0.2141870669404288 0  0.2533462554466219 0.2143516991142523 0  0.2533462554466303 0.18564830088576 0  0.2234150974215506 0.2441784247426195 0  0.2296339016331197 0.2402719738031125 0  0.2306200006656481 0.2483744735801409 0  0.2900654571599118 0.1851244352956092 0  0.2825971549227736 0.1858129330595456 0  0.2693200344911409 0.1703624615729042 0  0.2370670604668411 0.2561437100875122 0  0.2439893735792577 0.2237683615780412 0  0.2254320944728471 0.256276132616746 0  0.2751288526855082 0.2504894696471402 0  0.2973772572263381 0.2175617982546508 0  0.2973900081628705 0.1824599091601672 0  0.2460399618407353 0.2294379412176375 0  0.235672688557912 0.2416805760911849 0  0.2220625618530342 0.2502300158941232 0  0.2166911463435495 0.2471317900544655 0  0.2155707468285289 0.2556953171569842 0  0.2754241708482248 0.2153487639899751 0  0.3050224637686886 0.1840003691157356 0  0.3052148703289762 0.176135200920133 0  0.2751288526856362 0.184558060069257 0  0.2968565228222139 0.1734776848403526 0  0.2692521927396536 0.2151979606124073 0  0.2691876260717925 0.1848526873929683 0  0.2601922482113177 0.2140493078607503 0  0.260192248211366 0.1859506921392313 0  </DataArray>
</Points>
<Cells>
<DataArray  type="UInt32"  Name="connectivity"  format="ascii">0 1 2  3 1 4  5 6 7  8 6 7  5 6 9  10 6 9  11 12 13  8 14 15  16 14 15  17 10 6  18 19 14  0 20 2  21 3 4  5 7 22  11 23 24  8 7 25  8 15 26  11 13 24  16 15 27  18 14 25  8 14 25  28 24 29  8 6 26  17 6 26  19 14 30  16 14 30  31 13 32  33 34 7  35 36 15  5 13 24  12 13 32  33 7 22  28 24 9  34 7 25  31 13 22  36 15 26  23 24 29  1 4 2  16 4 2  35 15 27  10 28 9  31 33 22  5 24 9  20 35 27  19 21 30  36 17 26  34 18 25  5 13 22  37 23 29  38 12 32  20 2 27  21 4 30  16 4 30  16 2 27  37 28 29  38 31 32  39 40 41  42 43 44  45 46 47  48 49 50  45 51 52  53 54 55  56 57 58  48 59 60  61 53 54  45 46 62  39 46 41  42 57 44  63 64 52  39 46 62  65 66 67  39 68 69  39 68 70  39 40 70  45 62 50  71 72 53  40 73 74  63 64 75  65 66 76  48 49 60  77 78 79  43 80 81  42 57 82  45 64 52  40 41 74  83 61 54  45 64 47  56 66 67  43 44 81  84 63 52  48 54 55  83 61 79  56 66 58  56 57 82  45 51 50  48 50 55  83 85 79  86 49 60  39 62 69  48 59 54  21 3 87  49 62 50  0 20 88  72 53 89  83 59 54  71 53 90  86 49 69  78 79 90  77 79 91  92 93 91  86 68 69  51 53 89  46 41 94  0 88 95  96 88 95  57 44 97  21 87 73  20 88 80  61 53 90  96 88 98  61 79 90  49 62 69  33 34 99  17 10 100  85 79 91  33 47 99  10 58 100  85 93 91  40 87 73  43 88 98  34 18 94  36 17 97  43 88 80  51 50 55  19 21 73  38 31 75  20 35 80  37 28 76  33 47 101  51 53 55  10 58 102  31 75 101  38 63 75  28 76 102  37 65 76  84 52 89  64 75 101  72 84 89  78 71 90  66 76 102  64 47 101  92 77 91  66 58 102  18 94 74  36 97 81  31 33 101  10 28 102  18 19 74  35 36 81  19 73 74  35 80 81  46 47 99  57 58 100  51 52 89  41 94 74  44 97 81  46 94 99  57 97 100  34 94 99  17 97 100  </DataArray>
<DataArray  type="UInt32"  Name="offsets"  format="ascii">3 6 9 12 15 18 21 24 27 30 33 36 39 42 45 48 51 54 57 60 63 66 69 72 75 78 81 84 87 90 93 96 99 102 105 108 111 114 117 120 123 126 129 132 135 138 141 144 147 150 153 156 159 162 165 168 171 174 177 180 183 186 189 192 195 198 201 204 207 210 213 216 219 222 225 228 231 234 237 240 243 246 249 252 255 258 261 264 267 270 273 276 279 282 285 288 291 294 297 300 303 306 309 312 315 318 321 324 327 330 333 336 339 342 345 348 351 354 357 360 363 366 369 372 375 378 381 384 387 390 393 396 399 402 405 408 411 414 417 420 423 426 429 432 435 438 441 444 447 450 453 456 459 462 465 468 471 474 477 480 483 486 489 492 495 498 501 504 507 510 </DataArray>
<DataArray  type="UInt8"  Name="types"  format="ascii">5 5 5 5 5 5 5 5 5 5 5 5 5 5 5 5 5 5 5 5 5 5 5 5 5 5 5 5 5 5 5 5 5 5 5 5 5 5 5 5 5 5 5 5 5 5 5 5 5 5 5 5 5 5 5 5 5 5 5 5 5 5 5 5 5 5 5 5 5 5 5 5 5 5 5 5 5 5 5 5 5 5 5 5 5 5 5 5 5 5 5 5 5 5 5 5 5 5 5 5 5 5 5 5 5 5 5 5 5 5 5 5 5 5 5 5 5 5 5 5 5 5 5 5 5 5 5 5 5 5 5 5 5 5 5 5 5 5 5 5 5 5 5 5 5 5 5 5 5 5 5 5 5 5 5 5 5 5 5 5 5 5 5 5 5 5 5 5 5 5 </DataArray>
</Cells>
<PointData  Vectors="f_43-1"> 
<DataArray  type="Float64"  Name="f_43-1"  NumberOfComponents="3" format="ascii">-1.9970416612527276e-08 7.8793966537993446e-08 0.0000000000000000e+00  4.2366033898783786e-07 -1.3001339742007655e-06 0.0000000000000000e+00  2.1761075585021198e-07 -5.0499645258618860e-07 0.0000000000000000e+00  9.0275381961815802e-07 -2.7834840173366050e-06 0.0000000000000000e+00  5.3407114314634975e-07 -1.6067399215963613e-06 0.0000000000000000e+00  -1.2824061422639792e-07 -8.2789218582320591e-08 0.0000000000000000e+00  -3.1162486080691800e-08 3.5901837681881715e-07 0.0000000000000000e+00  1.0983156178213822e-07 -8.0095830112373116e-07 0.0000000000000000e+00  1.4421882102818316e-07 -3.5601631602352947e-07 0.0000000000000000e+00  -1.2979393594096613e-07 7.4881051413168869e-07 0.0000000000000000e+00  -1.1159002331972590e-07 1.3549767457465037e-06 0.0000000000000000e+00  0.0000000000000000e+00 0.0000000000000000e+00 0.0000000000000000e+00  0.0000000000000000e+00 0.0000000000000000e+00 0.0000000000000000e+00  -1.8216001375371446e-07 -4.3267131046187945e-07 0.0000000000000000e+00  3.5276695690812316e-07 -1.0993362752642453e-06 0.0000000000000000e+00  1.1424898598752115e-07 8.9588094965156405e-09 0.0000000000000000e+00  3.1274536846906802e-07 -8.0465748207331603e-07 0.0000000000000000e+00  -1.1489419246467623e-07 1.1977434325670826e-06 0.0000000000000000e+00  4.9164530467237369e-07 -1.9635772090215375e-06 0.0000000000000000e+00  6.4402268911601485e-07 -2.1933352308404303e-06 0.0000000000000000e+00  -3.4447194234439555e-08 4.2306803381509944e-07 0.0000000000000000e+00  7.8131915084248115e-07 -2.4681248790736985e-06 0.0000000000000000e+00  -4.2595035226530089e-09 -9.4085181208401018e-07 0.0000000000000000e+00  0.0000000000000000e+00 0.0000000000000000e+00 0.0000000000000000e+00  -2.1665480952366097e-07 3.7654240961268933e-07 0.0000000000000000e+00  2.9448536889706376e-07 -1.2120390814577544e-06 0.0000000000000000e+00  6.8445928547254085e-09 4.8029202771515592e-07 0.0000000000000000e+00  1.1331310787419297e-07 -2.2603677446717210e-08 0.0000000000000000e+00  2.5622123186494045e-08 1.2982030908104281e-06 0.0000000000000000e+00  -9.4631596923856798e-08 6.3409908247209492e-07 0.0000000000000000e+00  5.3412597322516675e-07 -1.6567709443774366e-06 0.0000000000000000e+00  1.7473564829974593e-07 -1.4173785487434269e-06 0.0000000000000000e+00  -5.0994005086388399e-08 -6.7676667218678965e-07 0.0000000000000000e+00  1.8779341121480679e-07 -1.6544408410126687e-06 0.0000000000000000e+00  3.2731687829898818e-07 -1.7860482757347721e-06 0.0000000000000000e+00  -5.6093798004907816e-08 7.2532641272915164e-07 0.0000000000000000e+00  -8.4079644195665512e-08 9.8324562162373512e-07 0.0000000000000000e+00  0.0000000000000000e+00 0.0000000000000000e+00 0.0000000000000000e+00  0.0000000000000000e+00 0.0000000000000000e+00 0.0000000000000000e+00  4.3561807866770919e-07 -1.9513349902672655e-06 0.0000000000000000e+00  5.9113919082150974e-07 -2.3019294475698407e-06 0.0000000000000000e+00  4.6876827027953226e-07 -1.9727267240376152e-06 0.0000000000000000e+00  -7.7414152756861264e-08 1.5888393965407961e-07 0.0000000000000000e+00  -7.1147928273072238e-08 1.4208082754087145e-07 0.0000000000000000e+00  -7.5818706381092542e-08 4.6576145111529212e-07 0.0000000000000000e+00  2.0832405730528836e-07 -1.1217631395537535e-06 0.0000000000000000e+00  3.3900242430207705e-07 -1.6461390571137882e-06 0.0000000000000000e+00  2.3748359929173462e-07 -1.4018271159901678e-06 0.0000000000000000e+00  1.6656192998373145e-07 -9.3290369237859699e-07 0.0000000000000000e+00  2.5771016170757951e-07 -1.3552098457746311e-06 0.0000000000000000e+00  1.9511387837094656e-07 -1.0389258369016304e-06 0.0000000000000000e+00  1.2081046368770001e-07 -6.6197294496741240e-07 0.0000000000000000e+00  9.3795040878337604e-08 -5.3139917441045255e-07 0.0000000000000000e+00  6.8581503828198808e-08 -3.8768284378180567e-07 0.0000000000000000e+00  1.1442840341750638e-07 -6.6880545416929504e-07 0.0000000000000000e+00  1.3007703172072439e-07 -7.2132461434801080e-07 0.0000000000000000e+00  -4.5299042749055026e-08 3.2202879925918289e-07 0.0000000000000000e+00  -7.2723817695038875e-08 5.3928831415950068e-07 0.0000000000000000e+00  -6.0956910660050410e-08 7.5486144577498504e-07 0.0000000000000000e+00  1.4880635540822190e-07 -9.0993126952265214e-07 0.0000000000000000e+00  2.2372218789035848e-07 -1.2701905459708874e-06 0.0000000000000000e+00  7.3144755766562669e-08 -4.3343619430680810e-07 0.0000000000000000e+00  3.0245916239494743e-07 -1.5007835703747276e-06 0.0000000000000000e+00  0.0000000000000000e+00 0.0000000000000000e+00 0.0000000000000000e+00  1.4921394097657586e-07 -9.0961017972215352e-07 0.0000000000000000e+00  0.0000000000000000e+00 0.0000000000000000e+00 0.0000000000000000e+00  -2.0332759011288428e-08 5.0794186044979954e-07 0.0000000000000000e+00  -1.6678773480902218e-08 1.8483726904623614e-07 0.0000000000000000e+00  4.3445345520054279e-07 -2.1176958730546025e-06 0.0000000000000000e+00  3.4729741880413485e-07 -1.7254983761069435e-06 0.0000000000000000e+00  5.3750220432414129e-07 -2.3216737301683236e-06 0.0000000000000000e+00  0.0000000000000000e+00 0.0000000000000000e+00 0.0000000000000000e+00  0.0000000000000000e+00 0.0000000000000000e+00 0.0000000000000000e+00  6.6427633568438744e-07 -2.3386187811051975e-06 0.0000000000000000e+00  5.4323489084871736e-07 -2.0781197696250206e-06 0.0000000000000000e+00  1.3155137695904427e-07 -8.0209235683365070e-07 0.0000000000000000e+00  2.7803749588156552e-08 6.2793545851940350e-07 0.0000000000000000e+00  0.0000000000000000e+00 0.0000000000000000e+00 0.0000000000000000e+00  0.0000000000000000e+00 0.0000000000000000e+00 0.0000000000000000e+00  3.8624248683789325e-08 -2.4047064735356997e-07 0.0000000000000000e+00  -5.6570275232561023e-08 3.6398450810468809e-07 0.0000000000000000e+00  -7.1321903662726903e-08 6.5038135716398460e-07 0.0000000000000000e+00  -6.5632486453081845e-08 2.2651865050041718e-07 0.0000000000000000e+00  8.4159305392758776e-08 -5.2825307409196831e-07 0.0000000000000000e+00  0.0000000000000000e+00 0.0000000000000000e+00 0.0000000000000000e+00  4.5214660775064385e-08 -2.9787036400577439e-07 0.0000000000000000e+00  3.1454062138133125e-07 -1.7047581468255691e-06 0.0000000000000000e+00  7.5068120578349454e-07 -2.6440740033972653e-06 0.0000000000000000e+00  -5.5038027341629800e-08 -2.6749998923506887e-08 0.0000000000000000e+00  5.4633128539359450e-08 -3.0388652849230498e-07 0.0000000000000000e+00  3.4781911368177298e-08 -2.0528953633109048e-07 0.0000000000000000e+00  2.0081827320752278e-08 -1.3163892201252954e-07 0.0000000000000000e+00  0.0000000000000000e+00 0.0000000000000000e+00 0.0000000000000000e+00  2.3493641062867397e-08 -1.6171328820415339e-07 0.0000000000000000e+00  4.0906393764509031e-07 -1.8452628254147047e-06 0.0000000000000000e+00  -4.5533729995950470e-08 -3.1343992025799221e-07 0.0000000000000000e+00  -7.8399233739695659e-08 -5.5372586579962473e-07 0.0000000000000000e+00  -8.4696955924043081e-08 7.8687775192472250e-07 0.0000000000000000e+00  -8.1881472533547028e-08 -2.9776269947849991e-07 0.0000000000000000e+00  3.0352782760962292e-07 -1.6557079134417471e-06 0.0000000000000000e+00  -8.6625708720874296e-08 9.0948225860654087e-07 0.0000000000000000e+00  1.8495006364448486e-07 -1.3478556599519710e-06 0.0000000000000000e+00  -4.3577498952635629e-08 9.8761068294950665e-07 0.0000000000000000e+00  </DataArray> 
</PointData> 
</Piece>
</UnstructuredGrid>
</VTKFile>