<?xml version="1.0"?>
<VTKFile type="UnstructuredGrid"  version="0.1"  >
<UnstructuredGrid>
<Piece  NumberOfPoints="103" NumberOfCells="170">
<Points>
<DataArray  type="Float64"  NumberOfComponents="3"  format="ascii">0.3012679105156187 0.19 0  0.3006558810093873 0.1999966199048318 0  0.2950977245127906 0.1961819304477774 0  0.301267910515333 0.21 0  0.2950977245128307 0.2038180695522663 0  0.2607803159922026 0.2000727136295815 0  0.2677053789419034 0.1964246479135325 0  0.267698176732111 0.2039977513680092 0  0.2751288526855082 0.20000000000002 0  0.2603913042767976 0.1945999920783741 0  0.2639263993299336 0.19 0  0.25 0.2 0  0.2497468076502589 0.2050254481002335 0  0.2550657455369551 0.2034088125358657 0  0.2825131256993216 0.2035478995978015 0  0.2825051229162361 0.1959834479681729 0  0.2894621222999649 0.1998691686390484 0  0.2713947015670686 0.19 0  0.2788630038040554 0.21 0  0.2863313060411479 0.21 0  0.2937996082784807 0.19 0  0.2937996082782405 0.21 0  0.2601812407614425 0.2056861609747042 0  0.2497468076502614 0.1949745518997913 0  0.2548908499171161 0.1966940311614271 0  0.2751288526855081 0.205697194228819 0  0.2751288526856362 0.1943028057711959 0  0.2895549462647731 0.1944069323160756 0  0.2564580970927985 0.19 0  0.2525889069107169 0.1926036384190297 0  0.2897864851748124 0.2055930218738881 0  0.25645809709277 0.21 0  0.25261805618068 0.2074135021971937 0  0.2639263993298655 0.21 0  0.271394701566961 0.21 0  0.2863313060413428 0.19 0  0.2788630038042048 0.19 0  0.2489897948556636 0.19 0  0.2489897948556636 0.21 0  0.2802365149396702 0.2293267412254819 0  0.2888197773682229 0.2217624015035644 0  0.2799011483571476 0.2201540359780956 0  0.2798983539554935 0.1725715317274126 0  0.2887875715604008 0.1784526411902859 0  0.2798265752054099 0.1801908109055989 0  0.2607466101664424 0.2266930975791233 0  0.271385042995999 0.2220255791858506 0  0.2640363109795177 0.2179944263838653 0  0.2544808243315743 0.2458504951732927 0  0.2658768459325225 0.2418747601129979 0  0.2588244756332078 0.23611127323402 0  0.2516468834717856 0.2324930308055588 0  0.2510679533716966 0.2249523323210773 0  0.2433956710264305 0.2381734167068584 0  0.2460613805257083 0.2485222416480207 0  0.2507569858396673 0.2399489856244889 0  0.2607333124992295 0.173299215235651 0  0.2711961111491841 0.1784474567953763 0  0.2640363109795686 0.1820055736160818 0  0.250265698216607 0.2591459325753045 0  0.2627897304119148 0.25271037528669 0  0.2397046897252064 0.2463916348380001 0  0.2693249379754523 0.232253714048252 0  0.246996525252926 0.2170682926548348 0  0.2561841824185058 0.2195000859865352 0  0.2469965252529372 0.1829317073451959 0  0.2561841824184873 0.1804999140134954 0  0.2510789311637825 0.1750218956597876 0  0.2854688561834498 0.2412236914981949 0  0.2752342263051384 0.2394149830158712 0  0.2897734241776366 0.2309782844302881 0  0.2352133972703547 0.2354967132658811 0  0.2400332147833751 0.2299556624715287 0  0.2898993665208313 0.2148884498665536 0  0.2825971549226016 0.2141870669404288 0  0.2533462554466219 0.2143516991142523 0  0.2533462554466303 0.18564830088576 0  0.2234150974215506 0.2441784247426195 0  0.2296339016331197 0.2402719738031125 0  0.2306200006656481 0.2483744735801409 0  0.2900654571599118 0.1851244352956092 0  0.2825971549227736 0.1858129330595456 0  0.2693200344911409 0.1703624615729042 0  0.2370670604668411 0.2561437100875122 0  0.2439893735792577 0.2237683615780412 0  0.2254320944728471 0.256276132616746 0  0.2751288526855082 0.2504894696471402 0  0.2973772572263381 0.2175617982546508 0  0.2973900081628705 0.1824599091601672 0  0.2460399618407353 0.2294379412176375 0  0.235672688557912 0.2416805760911849 0  0.2220625618530342 0.2502300158941232 0  0.2166911463435495 0.2471317900544655 0  0.2155707468285289 0.2556953171569842 0  0.2754241708482248 0.2153487639899751 0  0.3050224637686886 0.1840003691157356 0  0.3052148703289762 0.176135200920133 0  0.2751288526856362 0.184558060069257 0  0.2968565228222139 0.1734776848403526 0  0.2692521927396536 0.2151979606124073 0  0.2691876260717925 0.1848526873929683 0  0.2601922482113177 0.2140493078607503 0  0.260192248211366 0.1859506921392313 0  </DataArray>
</Points>
<Cells>
<DataArray  type="UInt32"  Name="connectivity"  format="ascii">0 1 2  3 1 4  5 6 7  8 6 7  5 6 9  10 6 9  11 12 13  8 14 15  16 14 15  17 10 6  18 19 14  0 20 2  21 3 4  5 7 22  11 23 24  8 7 25  8 15 26  11 13 24  16 15 27  18 14 25  8 14 25  28 24 29  8 6 26  17 6 26  19 14 30  16 14 30  31 13 32  33 34 7  35 36 15  5 13 24  12 13 32  33 7 22  28 24 9  34 7 25  31 13 22  36 15 26  23 24 29  1 4 2  16 4 2  35 15 27  10 28 9  31 33 22  5 24 9  20 35 27  19 21 30  36 17 26  34 18 25  5 13 22  37 23 29  38 12 32  20 2 27  21 4 30  16 4 30  16 2 27  37 28 29  38 31 32  39 40 41  42 43 44  45 46 47  48 49 50  45 51 52  53 54 55  56 57 58  48 59 60  61 53 54  45 46 62  39 46 41  42 57 44  63 64 52  39 46 62  65 66 67  39 68 69  39 68 70  39 40 70  45 62 50  71 72 53  40 73 74  63 64 75  65 66 76  48 49 60  77 78 79  43 80 81  42 57 82  45 64 52  40 41 74  83 61 54  45 64 47  56 66 67  43 44 81  84 63 52  48 54 55  83 61 79  56 66 58  56 57 82  45 51 50  48 50 55  83 85 79  86 49 60  39 62 69  48 59 54  21 3 87  49 62 50  0 20 88  72 53 89  83 59 54  71 53 90  86 49 69  78 79 90  77 79 91  92 93 91  86 68 69  51 53 89  46 41 94  0 88 95  96 88 95  57 44 97  21 87 73  20 88 80  61 53 90  96 88 98  61 79 90  49 62 69  33 34 99  17 10 100  85 79 91  33 47 99  10 58 100  85 93 91  40 87 73  43 88 98  34 18 94  36 17 97  43 88 80  51 50 55  19 21 73  38 31 75  20 35 80  37 28 76  33 47 101  51 53 55  10 58 102  31 75 101  38 63 75  28 76 102  37 65 76  84 52 89  64 75 101  72 84 89  78 71 90  66 76 102  64 47 101  92 77 91  66 58 102  18 94 74  36 97 81  31 33 101  10 28 102  18 19 74  35 36 81  19 73 74  35 80 81  46 47 99  57 58 100  51 52 89  41 94 74  44 97 81  46 94 99  57 97 100  34 94 99  17 97 100  </DataArray>
<DataArray  type="UInt32"  Name="offsets"  format="ascii">3 6 9 12 15 18 21 24 27 30 33 36 39 42 45 48 51 54 57 60 63 66 69 72 75 78 81 84 87 90 93 96 99 102 105 108 111 114 117 120 123 126 129 132 135 138 141 144 147 150 153 156 159 162 165 168 171 174 177 180 183 186 189 192 195 198 201 204 207 210 213 216 219 222 225 228 231 234 237 240 243 246 249 252 255 258 261 264 267 270 273 276 279 282 285 288 291 294 297 300 303 306 309 312 315 318 321 324 327 330 333 336 339 342 345 348 351 354 357 360 363 366 369 372 375 378 381 384 387 390 393 396 399 402 405 408 411 414 417 420 423 426 429 432 435 438 441 444 447 450 453 456 459 462 465 468 471 474 477 480 483 486 489 492 495 498 501 504 507 510 </DataArray>
<DataArray  type="UInt8"  Name="types"  format="ascii">5 5 5 5 5 5 5 5 5 5 5 5 5 5 5 5 5 5 5 5 5 5 5 5 5 5 5 5 5 5 5 5 5 5 5 5 5 5 5 5 5 5 5 5 5 5 5 5 5 5 5 5 5 5 5 5 5 5 5 5 5 5 5 5 5 5 5 5 5 5 5 5 5 5 5 5 5 5 5 5 5 5 5 5 5 5 5 5 5 5 5 5 5 5 5 5 5 5 5 5 5 5 5 5 5 5 5 5 5 5 5 5 5 5 5 5 5 5 5 5 5 5 5 5 5 5 5 5 5 5 5 5 5 5 5 5 5 5 5 5 5 5 5 5 5 5 5 5 5 5 5 5 5 5 5 5 5 5 5 5 5 5 5 5 5 5 5 5 5 5 </DataArray>
</Cells>
<PointData  Vectors="f_43-1"> 
<DataArray  type="Float64"  Name="f_43-1"  NumberOfComponents="3" format="ascii">-2.4418779082566749e-07 3.6567912410326658e-07 0.0000000000000000e+00  -4.6043699498337778e-08 -6.0201528945729064e-07 0.0000000000000000e+00  -1.1397458561607651e-07 -1.1130203268114269e-07 0.0000000000000000e+00  1.6535934036076775e-07 -1.6142530308283347e-06 0.0000000000000000e+00  2.7573925461590719e-08 -8.7315013594041951e-07 0.0000000000000000e+00  -1.6313034383449311e-07 -4.3782586171886619e-08 0.0000000000000000e+00  -1.2780573649358409e-07 2.8632905353736787e-07 0.0000000000000000e+00  -6.1628131758107339e-08 -5.1494883619698794e-07 0.0000000000000000e+00  -7.0954830120200164e-08 -1.7105807301982311e-07 0.0000000000000000e+00  -1.4859884074737221e-07 5.3195499546766601e-07 0.0000000000000000e+00  -1.4035571290759499e-07 9.6682496030775938e-07 0.0000000000000000e+00  0.0000000000000000e+00 0.0000000000000000e+00 0.0000000000000000e+00  0.0000000000000000e+00 0.0000000000000000e+00 0.0000000000000000e+00  -1.6544426623977096e-07 -2.9566001429595044e-07 0.0000000000000000e+00  -2.5026415497454455e-09 -6.3420420581187558e-07 0.0000000000000000e+00  -1.1118417536048146e-07 1.3192230381553862e-07 0.0000000000000000e+00  -4.8454968189406185e-08 -3.7388558608996363e-07 0.0000000000000000e+00  -1.7598286067702162e-07 8.8946519925655091e-07 0.0000000000000000e+00  7.6587058755247340e-08 -1.2509174314181113e-06 0.0000000000000000e+00  1.1586640580639183e-07 -1.3537410717075978e-06 0.0000000000000000e+00  -2.2094487864817151e-07 5.2321061534606811e-07 0.0000000000000000e+00  1.4559906827243710e-07 -1.4757952218266140e-06 0.0000000000000000e+00  -8.7380600145874557e-08 -6.3550767223439242e-07 0.0000000000000000e+00  0.0000000000000000e+00 0.0000000000000000e+00 0.0000000000000000e+00  -1.8083889564991050e-07 2.6241619271697003e-07 0.0000000000000000e+00  -5.0207943522145285e-10 -7.6014172581015958e-07 0.0000000000000000e+00  -1.3314079908803737e-07 4.0920998802776167e-07 0.0000000000000000e+00  -1.3848699279160836e-07 1.6978673367378630e-07 0.0000000000000000e+00  -1.2890218964629713e-08 9.0885560627251199e-07 0.0000000000000000e+00  -8.1671819510450532e-08 4.4110482933182923e-07 0.0000000000000000e+00  5.0499885024171616e-08 -9.5778290882835736e-07 0.0000000000000000e+00  5.8165807246738865e-08 -9.6758251885926428e-07 0.0000000000000000e+00  -6.0994038097938227e-08 -4.6369326767702664e-07 0.0000000000000000e+00  6.5155684878656316e-10 -1.1125705523836846e-06 0.0000000000000000e+00  2.9818421839874283e-08 -1.1720849116189049e-06 0.0000000000000000e+00  -2.0247683789550066e-07 6.6348117103978617e-07 0.0000000000000000e+00  -1.8827068313942805e-07 7.8524507157528988e-07 0.0000000000000000e+00  0.0000000000000000e+00 0.0000000000000000e+00 0.0000000000000000e+00  0.0000000000000000e+00 0.0000000000000000e+00 0.0000000000000000e+00  3.1380292017245559e-08 -1.1091705818881534e-06 0.0000000000000000e+00  7.0162072001470528e-08 -1.3233629732860430e-06 0.0000000000000000e+00  5.4406228672359365e-08 -1.1773482196531575e-06 0.0000000000000000e+00  -1.8885011689506149e-07 3.3229459481942392e-07 0.0000000000000000e+00  -2.1989728502880127e-07 3.6089865318430383e-07 0.0000000000000000e+00  -1.8734346964735350e-07 5.0237828600506457e-07 0.0000000000000000e+00  1.4920177671923392e-08 -6.7207483726569262e-07 0.0000000000000000e+00  3.1108880364673531e-08 -9.9710015622967731e-07 0.0000000000000000e+00  2.2881783235144876e-08 -8.9017338191581696e-07 0.0000000000000000e+00  -7.4403058390155153e-09 -5.0376310089142968e-07 0.0000000000000000e+00  -1.7153236306797202e-09 -7.4309618936589396e-07 0.0000000000000000e+00  3.5006303431333056e-09 -5.8749698546786549e-07 0.0000000000000000e+00  3.6200031176025305e-09 -3.8083753469831367e-07 0.0000000000000000e+00  8.7053916973205833e-09 -3.2214746881795514e-07 0.0000000000000000e+00  -1.9647068427316568e-09 -2.1329548413236741e-07 0.0000000000000000e+00  -9.0300197747654709e-09 -3.5532699526461664e-07 0.0000000000000000e+00  -2.3795319272951021e-09 -3.9833470024629680e-07 0.0000000000000000e+00  -9.6196690066875367e-08 3.2245016673370867e-07 0.0000000000000000e+00  -1.5117653770060016e-07 5.0645299185711008e-07 0.0000000000000000e+00  -1.1241483143670723e-07 5.9843568239192935e-07 0.0000000000000000e+00  -1.8996665782281038e-08 -4.7025703016729086e-07 0.0000000000000000e+00  -1.6260883772519285e-08 -6.6945319179698414e-07 0.0000000000000000e+00  -6.3958894314896684e-09 -2.2979191601946255e-07 0.0000000000000000e+00  1.4428855193260157e-08 -8.5938127219681374e-07 0.0000000000000000e+00  0.0000000000000000e+00 0.0000000000000000e+00 0.0000000000000000e+00  2.1808898013622488e-08 -5.7847334838991355e-07 0.0000000000000000e+00  0.0000000000000000e+00 0.0000000000000000e+00 0.0000000000000000e+00  -5.4598425827795145e-08 3.9974397324865077e-07 0.0000000000000000e+00  -3.9814644216741664e-08 1.7141090209540951e-07 0.0000000000000000e+00  2.2357118674098975e-09 -1.1336375277240543e-06 0.0000000000000000e+00  4.8718496407290058e-09 -9.4628110451316264e-07 0.0000000000000000e+00  3.5628078344117264e-08 -1.2793445501096095e-06 0.0000000000000000e+00  0.0000000000000000e+00 0.0000000000000000e+00 0.0000000000000000e+00  0.0000000000000000e+00 0.0000000000000000e+00 0.0000000000000000e+00  1.0453256666188745e-07 -1.3850678864689255e-06 0.0000000000000000e+00  8.1481172498269317e-08 -1.2708319987906222e-06 0.0000000000000000e+00  4.4348599475140396e-08 -5.3369530704103874e-07 0.0000000000000000e+00  -3.7553215800533157e-09 4.5416990920729690e-07 0.0000000000000000e+00  0.0000000000000000e+00 0.0000000000000000e+00 0.0000000000000000e+00  0.0000000000000000e+00 0.0000000000000000e+00 0.0000000000000000e+00  -5.1945038879831438e-09 -1.2473403021198962e-07 0.0000000000000000e+00  -2.1758692914964860e-07 4.8305832835560255e-07 0.0000000000000000e+00  -1.9591566920794567e-07 6.1356574729007288e-07 0.0000000000000000e+00  -1.4273924575541046e-07 3.1796835098512153e-07 0.0000000000000000e+00  -1.2216850141187524e-08 -2.7222222873970601e-07 0.0000000000000000e+00  0.0000000000000000e+00 0.0000000000000000e+00 0.0000000000000000e+00  -8.5249655172674540e-09 -1.5121047818468950e-07 0.0000000000000000e+00  -1.6326235909658833e-08 -8.9745190921596579e-07 0.0000000000000000e+00  1.0718725584664026e-07 -1.5049500149239610e-06 0.0000000000000000e+00  -2.4595735251682821e-07 3.0242042303111113e-07 0.0000000000000000e+00  2.1110446167500360e-09 -1.7632753644603048e-07 0.0000000000000000e+00  -2.7752779433484382e-09 -1.0945266111839584e-07 0.0000000000000000e+00  -3.6792562003095533e-09 -6.6991521698368095e-08 0.0000000000000000e+00  0.0000000000000000e+00 0.0000000000000000e+00 0.0000000000000000e+00  -5.3984307720947740e-09 -8.1041696880655948e-08 0.0000000000000000e+00  4.9428333260010376e-08 -1.1512134304836832e-06 0.0000000000000000e+00  -2.7259569593967521e-07 1.7996165049764732e-07 0.0000000000000000e+00  -2.8846784460214185e-07 5.9391997790869312e-08 0.0000000000000000e+00  -1.7338764969571802e-07 6.6492555930726273e-07 0.0000000000000000e+00  -2.5631078515641833e-07 1.5931694983034875e-07 0.0000000000000000e+00  2.8475287346200839e-08 -1.0564241093677316e-06 0.0000000000000000e+00  -1.4950052476141970e-07 7.1415046588126141e-07 0.0000000000000000e+00  2.4627122814248102e-08 -8.8959207035330502e-07 0.0000000000000000e+00  -8.1073286478132423e-08 7.2348158193561908e-07 0.0000000000000000e+00  </DataArray> 
</PointData> 
</Piece>
</UnstructuredGrid>
</VTKFile>