<?xml version="1.0"?>
<VTKFile type="UnstructuredGrid"  version="0.1"  >
<UnstructuredGrid>
<Piece  NumberOfPoints="102" NumberOfCells="171">
<Points>
<DataArray  type="Float64"  NumberOfComponents="3"  format="ascii">0.476773013087985 0.1999999999998713 0  0.4693047108508938 0.1970915826863783 0  0.4693047108503577 0.2040749161535231 0  0.4917096175621762 0.1999999999998808 0  0.4842413153250809 0.1970915826863873 0  0.4842413153245942 0.2040749161535287 0  0.5066462220363641 0.199999999999908 0  0.4991779197992749 0.1970915826863902 0  0.4991779197988497 0.2040749161535382 0  0.5215828265105155 0.1999999999999228 0  0.5141145242734466 0.1970915826863843 0  0.5141145242731028 0.2040749161535395 0  0.5365194309847112 0.1999999999999436 0  0.5290511287476175 0.1970915826863981 0  0.5290511287473298 0.2040749161535501 0  0.5327852798661811 0.19 0  0.5253169776290537 0.19 0  0.5178486753919799 0.19 0  0.5103803731549078 0.19 0  0.4879754664436223 0.19 0  0.4805071642065402 0.19 0  0.502912070917822 0.19 0  0.4954437686807294 0.19 0  0.4767730130872753 0.2056971942287455 0  0.4917096175615203 0.2056971942287492 0  0.5066462220358396 0.2056971942287649 0  0.5215828265100828 0.2056971942287677 0  0.5365194309843644 0.2056971942287865 0  0.5439623148931173 0.2040856076781014 0  0.5365194309847112 0.1943028057711659 0  0.5215828265105155 0.1943028057711514 0  0.4767730130879849 0.1943028057711153 0  0.4917096175621761 0.1943028057711214 0  0.5066462220363641 0.1943028057711422 0  0.480507164205851 0.21 0  0.4879754664429498 0.21 0  0.5103803731544119 0.21 0  0.5178486753915261 0.21 0  0.5402535821029386 0.21 0  0.54772188434007 0.21 0  0.4954437686800938 0.21 0  0.502912070917267 0.21 0  0.5253169776286404 0.21 0  0.5327852798657868 0.21 0  0.4730388619686996 0.21 0  0.4991779197992711 0.167693385507626 0  0.4900906149793102 0.1565876018036352 0  0.5082652246192162 0.1565876018036352 0  0.499237761463083 0.2192785032300353 0  0.4993542269391089 0.2308107468212473 0  0.5064903940750056 0.2246838314870058 0  0.5123638022628456 0.2310955071885417 0  0.536567636007916 0.2275987754591341 0  0.5347760817351684 0.2414500964404198 0  0.5283542774025207 0.2302880001042248 0  0.5455709551586724 0.2324144452751203 0  0.546982877175164 0.2233942294772845 0  0.5365194309843644 0.2180863504285254 0  0.5444469726554123 0.2157339702670886 0  0.5588244563271773 0.225349035787779 0  0.5519051872593019 0.2166420053265535 0  0.5216178319364539 0.1813492122870838 0  0.5265047000024197 0.2223941974774756 0  0.5286910337265995 0.2154702409242758 0  0.5150278681324471 0.2228450308306156 0  0.5214285426002536 0.2161011329323836 0  0.4767730130872752 0.2184019876485795 0  0.5209814004512184 0.2362962593649592 0  0.5084573036363184 0.2395108277223441 0  0.553378981997341 0.2322691570724318 0  0.5504647692515866 0.2417078359721865 0  0.4910031975930484 0.2171006717137592 0  0.5075668509025225 0.2171084086245455 0  0.5143590539697885 0.2155988592715468 0  0.4917096175621761 0.1826726487251064 0  0.5066462220363641 0.1826726487251085 0  0.5208355992062484 0.2285465546466679 0  0.4767380076620556 0.1813492122870721 0  0.4842366479349569 0.1837683957184343 0  0.5141191916635692 0.1837683957184422 0  0.4867628426197099 0.1672556638427207 0  0.5290511287476175 0.1834818376483974 0  0.5115929969788211 0.1672556638427288 0  0.4841984187204001 0.2159109988582109 0  0.5294745265341012 0.1761054820336709 0  0.5366299525895074 0.1825690825227473 0  0.4842413153250809 0.1755365127551258 0  0.4923756029794709 0.2245693836696246 0  0.4869999746943883 0.2308048359320609 0  0.5141145242734466 0.1755365127551412 0  0.4846260107628763 0.2228898464509046 0  0.4767730130879849 0.1622083790703084 0  0.5215828265105156 0.1622083790703317 0  0.4991779197992725 0.1783172034453956 0  0.4923389098589435 0.1741809711526818 0  0.4767269250530047 0.1713973971258736 0  0.506016929739597 0.1741809711526895 0  0.5349004284018322 0.1565876018036672 0  0.5316967135713353 0.1673421178078786 0  0.5216289307659581 0.1713997813123399 0  0.4991779197992735 0.1849089375109228 0  0.5631143150331265 0.2366473934541688 0  </DataArray>
</Points>
<Cells>
<DataArray  type="UInt32"  Name="connectivity"  format="ascii">0 1 2  3 4 5  6 7 8  9 10 11  12 13 14  9 13 14  6 10 11  3 7 8  0 4 5  15 16 13  17 18 10  19 20 4  21 22 7  0 2 23  3 5 24  6 8 25  9 11 26  12 14 27  12 28 27  9 14 26  6 11 25  3 8 24  0 5 23  15 13 29  16 13 30  9 13 30  12 13 29  0 4 31  20 4 31  0 1 31  19 4 32  18 10 33  21 7 33  22 7 32  17 10 30  6 7 33  6 10 33  3 4 32  3 7 32  9 10 30  34 35 5  36 37 11  38 39 28  40 41 8  42 43 14  34 5 23  44 2 23  35 5 24  40 8 24  36 11 25  41 8 25  42 14 26  43 14 27  38 28 27  37 11 26  44 34 23  35 40 24  41 36 25  43 38 27  37 42 26  22 19 32  18 21 33  16 17 30  45 46 47  40 41 48  49 50 51  52 53 54  52 53 55  56 57 58  59 56 60  52 56 57  16 17 61  52 62 57  62 57 63  64 62 65  44 34 66  67 53 54  43 38 57  49 68 51  59 56 69  70 53 55  40 48 71  41 48 72  52 56 55  64 73 65  22 19 74  18 21 75  64 62 76  20 77 78  17 61 79  45 46 80  16 61 81  56 55 69  45 47 82  34 66 83  35 40 71  41 36 72  84 85 81  52 62 54  86 74 78  49 87 88  67 68 51  89 75 79  38 57 58  43 57 63  90 71 83  64 72 73  91 46 80  19 20 78  17 18 79  15 16 81  34 35 83  92 47 82  36 37 73  45 93 94  86 77 95  45 93 96  92 97 98  45 94 80  19 74 78  84 61 99  18 75 79  45 96 82  89 61 99  90 71 87  37 42 65  15 85 81  64 72 50  86 74 94  89 75 96  38 39 58  35 71 83  36 72 73  22 74 100  21 75 100  42 43 63  84 61 81  86 80 95  84 98 99  86 77 78  89 61 79  89 82 99  49 48 87  49 48 50  90 66 83  37 73 65  48 71 87  48 72 50  39 60 58  42 65 63  92 98 99  91 80 95  59 101 69  21 22 100  92 82 99  64 50 51  86 94 80  93 74 94  93 75 96  89 96 82  70 101 69  93 74 100  93 75 100  56 60 58  62 65 63  90 87 88  62 54 76  64 76 51  70 55 69  67 76 51  67 54 76  </DataArray>
<DataArray  type="UInt32"  Name="offsets"  format="ascii">3 6 9 12 15 18 21 24 27 30 33 36 39 42 45 48 51 54 57 60 63 66 69 72 75 78 81 84 87 90 93 96 99 102 105 108 111 114 117 120 123 126 129 132 135 138 141 144 147 150 153 156 159 162 165 168 171 174 177 180 183 186 189 192 195 198 201 204 207 210 213 216 219 222 225 228 231 234 237 240 243 246 249 252 255 258 261 264 267 270 273 276 279 282 285 288 291 294 297 300 303 306 309 312 315 318 321 324 327 330 333 336 339 342 345 348 351 354 357 360 363 366 369 372 375 378 381 384 387 390 393 396 399 402 405 408 411 414 417 420 423 426 429 432 435 438 441 444 447 450 453 456 459 462 465 468 471 474 477 480 483 486 489 492 495 498 501 504 507 510 513 </DataArray>
<DataArray  type="UInt8"  Name="types"  format="ascii">5 5 5 5 5 5 5 5 5 5 5 5 5 5 5 5 5 5 5 5 5 5 5 5 5 5 5 5 5 5 5 5 5 5 5 5 5 5 5 5 5 5 5 5 5 5 5 5 5 5 5 5 5 5 5 5 5 5 5 5 5 5 5 5 5 5 5 5 5 5 5 5 5 5 5 5 5 5 5 5 5 5 5 5 5 5 5 5 5 5 5 5 5 5 5 5 5 5 5 5 5 5 5 5 5 5 5 5 5 5 5 5 5 5 5 5 5 5 5 5 5 5 5 5 5 5 5 5 5 5 5 5 5 5 5 5 5 5 5 5 5 5 5 5 5 5 5 5 5 5 5 5 5 5 5 5 5 5 5 5 5 5 5 5 5 5 5 5 5 5 5 </DataArray>
</Cells>
<PointData  Vectors="f_43-1"> 
<DataArray  type="Float64"  Name="f_43-1"  NumberOfComponents="3" format="ascii">7.6383698436737329e-06 -1.0251435952235533e-04 0.0000000000000000e+00  5.8885843345934126e-06 -9.6731199726417065e-05 0.0000000000000000e+00  1.0664515608971648e-05 -9.8281937648058836e-05 0.0000000000000000e+00  7.0628808746102911e-06 -1.1290601323719852e-04 0.0000000000000000e+00  5.3550226277024847e-06 -1.0707527639459668e-04 0.0000000000000000e+00  1.0205163858306960e-05 -1.0856520919831658e-04 0.0000000000000000e+00  6.3410606827325281e-06 -1.2341548224509895e-04 0.0000000000000000e+00  4.6827453830039981e-06 -1.1755487270043357e-04 0.0000000000000000e+00  9.5899614958369510e-06 -1.1898368219792044e-04 0.0000000000000000e+00  5.4716831072738130e-06 -1.3401212473806651e-04 0.0000000000000000e+00  3.8696062026825786e-06 -1.2813657721527598e-04 0.0000000000000000e+00  8.8194518123981937e-06 -1.2950378386802783e-04 0.0000000000000000e+00  4.4528983069642976e-06 -1.4467078495661857e-04 0.0000000000000000e+00  2.9130218343988425e-06 -1.3879260640559606e-04 0.0000000000000000e+00  7.8936869336100334e-06 -1.4009743367954247e-04 0.0000000000000000e+00  -2.3629588056747240e-06 -1.4016385398040568e-04 0.0000000000000000e+00  -1.8358036198892592e-06 -1.3479098102048683e-04 0.0000000000000000e+00  -1.3425983243527493e-06 -1.2943255089299416e-04 0.0000000000000000e+00  -8.8247935841873391e-07 -1.2409171571006673e-04 0.0000000000000000e+00  3.0539277001810708e-07 -1.0820579056686746e-04 0.0000000000000000e+00  6.3936260839466088e-07 -1.0296897154808168e-04 0.0000000000000000e+00  -4.5491414065012275e-07 -1.1877115205173814e-04 0.0000000000000000e+00  -5.9111103175622801e-08 -1.1347473518650151e-04 0.0000000000000000e+00  1.1580596297779333e-05 -1.0376085577596029e-04 0.0000000000000000e+00  1.1058347182675510e-05 -1.1410138010042134e-04 0.0000000000000000e+00  1.0376928180376671e-05 -1.2455961780373259e-04 0.0000000000000000e+00  9.5372978087484635e-06 -1.3510474610118782e-04 0.0000000000000000e+00  8.5396990638940020e-06 -1.4571130510420479e-04 0.0000000000000000e+00  6.8214851157577219e-06 -1.5072569479160973e-04 0.0000000000000000e+00  4.0031221265369497e-07 -1.4363473411599557e-04 0.0000000000000000e+00  1.4398257423509583e-06 -1.3292593774586668e-04 0.0000000000000000e+00  3.7292309981797529e-06 -1.0128331832141511e-04 0.0000000000000000e+00  3.1006504548907279e-06 -1.1172254061424938e-04 0.0000000000000000e+00  2.3386432524562201e-06 -1.2228023693530626e-04 0.0000000000000000e+00  1.4478827249222724e-05 -1.0727442154169206e-04 0.0000000000000000e+00  1.4237523749507222e-05 -1.1242481163179200e-04 0.0000000000000000e+00  1.3260817062451324e-05 -1.2804873740586656e-04 0.0000000000000000e+00  1.2852080984488101e-05 -1.3330144871887879e-04 0.0000000000000000e+00  1.1379502798162509e-05 -1.4914873454550601e-04 0.0000000000000000e+00  1.0806787121152289e-05 -1.5445232816688011e-04 0.0000000000000000e+00  1.3953905428510237e-05 -1.1760673367154233e-04 0.0000000000000000e+00  1.3628237489449275e-05 -1.2281593839621641e-04 0.0000000000000000e+00  1.2402160910030550e-05 -1.3857088794435180e-04 0.0000000000000000e+00  1.1911291198783016e-05 -1.4385420235570371e-04 0.0000000000000000e+00  1.4677365739083240e-05 -1.0216027090956649e-04 0.0000000000000000e+00  -4.7520174407173490e-07 -9.9675493689203894e-05 0.0000000000000000e+00  -2.0619900690115301e-07 -8.7225809455530442e-05 0.0000000000000000e+00  -8.4114434195624916e-07 -9.5981090027929693e-05 0.0000000000000000e+00  1.2748492873000052e-05 -1.1334501352880115e-04 0.0000000000000000e+00  1.1536410933667713e-05 -1.0488695120157197e-04 0.0000000000000000e+00  1.1870185495331426e-05 -1.1363659504902100e-04 0.0000000000000000e+00  1.0972524504792872e-05 -1.1177211284053627e-04 0.0000000000000000e+00  9.9943282241816217e-06 -1.2786296372190218e-04 0.0000000000000000e+00  8.9459764983411854e-06 -1.1312186962448396e-04 0.0000000000000000e+00  1.0240376882302061e-05 -1.2093334158213678e-04 0.0000000000000000e+00  9.0182850970803489e-06 -1.2698594243097742e-04 0.0000000000000000e+00  9.6607741389573758e-06 -1.3797229721589468e-04 0.0000000000000000e+00  1.0861862387937818e-05 -1.3785186926274640e-04 0.0000000000000000e+00  1.0522335060452375e-05 -1.4543973948848697e-04 0.0000000000000000e+00  8.6151273863076381e-06 -1.4136736323480954e-04 0.0000000000000000e+00  9.8715267050065044e-06 -1.4899197009412706e-04 0.0000000000000000e+00  -1.5656640762315587e-06 -1.2418249855560346e-04 0.0000000000000000e+00  1.1078212157967966e-05 -1.2745978927816321e-04 0.0000000000000000e+00  1.1625394933572961e-05 -1.3554707180032927e-04 0.0000000000000000e+00  1.1655752935444662e-05 -1.2022710270335885e-04 0.0000000000000000e+00  1.1998240022294203e-05 -1.3020915109183403e-04 0.0000000000000000e+00  1.3583773622456061e-05 -9.9695778151723748e-05 0.0000000000000000e+00  1.0087805495330955e-05 -1.1175138681455649e-04 0.0000000000000000e+00  1.0349699583683767e-05 -1.0301375817164263e-04 0.0000000000000000e+00  8.4995537940435119e-06 -1.3038107904266068e-04 0.0000000000000000e+00  8.0111031181567866e-06 -1.1851416135190517e-04 0.0000000000000000e+00  1.3303938392052542e-05 -1.0963869379926513e-04 0.0000000000000000e+00  1.2617800239822119e-05 -1.2034617463242112e-04 0.0000000000000000e+00  1.2440184877668443e-05 -1.2602906730278837e-04 0.0000000000000000e+00  -2.5430618776568478e-10 -1.0579183325439642e-04 0.0000000000000000e+00  -7.3104379735661296e-07 -1.1559587119908449e-04 0.0000000000000000e+00  1.0804216882944779e-05 -1.1855171762156994e-04 0.0000000000000000e+00  5.9566508842327333e-07 -9.5223176103817380e-05 0.0000000000000000e+00  3.4567005560617181e-07 -1.0159897788772664e-04 0.0000000000000000e+00  -1.1347722959864382e-06 -1.2143143895679712e-04 0.0000000000000000e+00  -8.9262286877755995e-10 -9.2476779705587110e-05 0.0000000000000000e+00  -2.0367527593214354e-06 -1.3102223985658195e-04 0.0000000000000000e+00  -1.0041669473446214e-06 -1.0611643862639978e-04 0.0000000000000000e+00  1.3665693087657354e-05 -1.0601344939737690e-04 0.0000000000000000e+00  -1.9702113295117419e-06 -1.2402577297594101e-04 0.0000000000000000e+00  -2.5166821614236100e-06 -1.3498985101576233e-04 0.0000000000000000e+00  2.0274398855079280e-07 -9.6343281286416152e-05 0.0000000000000000e+00  1.2433693396977046e-05 -1.0533126931693662e-04 0.0000000000000000e+00  1.1945781273850813e-05 -9.8015357050891500e-05 0.0000000000000000e+00  -1.1390569545995426e-06 -1.1442549110346290e-04 0.0000000000000000e+00  1.2863401906386285e-05 -1.0178410951198531e-04 0.0000000000000000e+00  2.7246293964062665e-07 -8.3926308007210824e-05 0.0000000000000000e+00  -1.4089537542916349e-06 -1.0694482928000972e-04 0.0000000000000000e+00  -3.9797717993628709e-07 -1.0747395213795403e-04 0.0000000000000000e+00  -1.4033840812592518e-07 -1.0033534296186347e-04 0.0000000000000000e+00  4.0967009114260276e-07 -8.9324157642716928e-05 0.0000000000000000e+00  -7.4509902759579253e-07 -1.0849885001939816e-04 0.0000000000000000e+00  -1.8690652037075483e-06 -1.0764679098029616e-04 0.0000000000000000e+00  -1.9441998308288492e-06 -1.1664745217558720e-04 0.0000000000000000e+00  -1.4992491032715762e-06 -1.1514582811832597e-04 0.0000000000000000e+00  -3.2495871818117037e-07 -1.1234809581645300e-04 0.0000000000000000e+00  7.4925730210818635e-06 -1.2811631949184282e-04 0.0000000000000000e+00  </DataArray> 
</PointData> 
</Piece>
</UnstructuredGrid>
</VTKFile>