<?xml version="1.0"?>
<VTKFile type="UnstructuredGrid"  version="0.1"  >
<UnstructuredGrid>
<Piece  NumberOfPoints="101" NumberOfCells="169">
<Points>
<DataArray  type="Float64"  NumberOfComponents="3"  format="ascii">0.6 0.21 0  0.5925316977628483 0.21 0  0.5955705746706843 0.2069223055301326 0  0.5887803774232762 0.2001272386983733 0  0.5814408164431408 0.2041285596160068 0  0.5893814947531364 0.2056233639521408 0  0.6 0.2 0  0.6 0.1950000000000217 0  0.594380730180568 0.1966558399668133 0  0.5946539510196798 0.2024302972968126 0  0.6 0.2050000000000054 0  0.5775950932886138 0.21 0  0.5850633955257281 0.21 0  0.6300528284996487 0.2292604486710743 0  0.65429728832161 0.2353880751391984 0  0.6456429596876728 0.2209784072651823 0  0.5740383564454857 0.232486177523615 0  0.5800331369475803 0.2220172718503647 0  0.5872716114964233 0.2289047791562547 0  0.589683001657349 0.3059206033515077 0  0.629251049118315 0.3129131677620721 0  0.6129037791821019 0.2898142990521698 0  0.5669464924360815 0.2475839849813879 0  0.5841951273902199 0.2421589553533847 0  0.5678918321244223 0.2848057098346606 0  0.5916500441695769 0.2809526698769227 0  0.5813292444071699 0.2563523755659055 0  0.5593867837568711 0.2625481287604455 0  0.6158241656144056 0.2465955912391796 0  0.6368758304361363 0.2529361994816268 0  0.6156282497854896 0.2673949998438289 0  0.5926483197196849 0.2655989755524508 0  0.6034720826395079 0.3406552446218118 0  0.5561563723763112 0.3041501920577169 0  0.7014764931779993 0.1925000000000107 0  0.685561679424891 0.2295161340218305 0  0.6773925486195326 0.2026632733038183 0  0.6622141672544596 0.2596384679938497 0  0.5683897549737816 0.3290580395153129 0  0.6341981541449615 0.3582841585921612 0  0.6186516859309905 0.2076004596739355 0  0.6330574554272607 0.20858417289079 0  0.6200567937109939 0.1981193972299755 0  0.5688911489504639 0.2221570651130901 0  0.6659720908852078 0.2972353895876497 0  0.6940661166801609 0.2673943882596362 0  0.5989004035231642 0.2514987524731583 0  0.596265848881424 0.2354323641502947 0  0.6295540558938247 0.1924839069479658 0  0.6341710204839701 0.1765827244303529 0  0.6426099985752125 0.1947200777786613 0  0.615208009837415 0.2301771304243292 0  0.5487739828661812 0.2837987172973246 0  0.6210712537558437 0.2177951339896733 0  0.6711932754123612 0.1788117674793375 0  0.6570334029219593 0.3356135508988682 0  0.5631143150331265 0.2366473934541688 0  0.5768392741880191 0.2703425200264898 0  0.6100254542261326 0.2029134597827689 0  0.6109529519469615 0.19670324045761 0  0.5740261188292279 0.2158012409855351 0  0.6035153318756115 0.216380925869335 0  0.6045977536612152 0.2079044120944432 0  0.6993284284288891 0.3008982894693075 0  0.6641604129055072 0.2170430078016702 0  0.7176052736190859 0.2162836958912044 0  0.5962264926010817 0.2155692304460942 0  0.5886496198982827 0.2178532325665078 0  0.5869673343225223 0.41 0  0.5770529515268702 0.3629450529032476 0  0.6084037118460524 0.3780069571238127 0  0.5963374227678123 0.2233833965505087 0  0.6048429996566183 0.2280441552220857 0  0.7236859362722395 0.2517828338101294 0  0.6916151138480078 0.41 0  0.7140255670996881 0.3646166311524474 0  0.6689331958774321 0.3716842215281515 0  0.6209583882721262 0.1847010880111589 0  0.6140419833156984 0.1920012542761988 0  0.6389246510848009 0.278450010052455 0  0.6902890633484133 0.332151151267615 0  0.6065875229028267 0.1922148945199381 0  0.6047562880647869 0.1975000000000114 0  0.6104992711520371 0.2118453231978703 0  0.6513011150928492 0.1835167781725089 0  0.6503345442188976 0.208122535960376 0  0.6603908909116775 0.196660215430242 0  0.6107068242365286 0.2205343762889329 0  0.6065667631161428 0.2400998453881159 0  0.556227780909367 0.2515606281824664 0  0.6383613676644679 0.41 0  0.5588244563271773 0.225349035787779 0  0.5662965898088369 0.2290837557773043 0  0.7294932489647475 0.2840789881590486 0  0.5811564300792245 0.2152441767609544 0  0.6043492189278221 0.2025000000000026 0  0.6537520553764576 0.1680442900620985 0  0.6385847074107548 0.1562173919888177 0  0.6641520523959832 0.1503720468916702 0  0.6112872589661165 0.1855979267337469 0  0.7279457694224267 0.3237962213587685 0  </DataArray>
</Points>
<Cells>
<DataArray  type="UInt32"  Name="connectivity"  format="ascii">0 1 2  3 4 5  6 7 8  6 9 8  6 10 9  9 2 5  1 2 5  11 12 4  12 4 5  10 9 2  12 1 5  3 9 5  3 9 8  0 10 2  13 14 15  16 17 18  19 20 21  16 22 23  19 24 25  26 27 22  13 28 29  30 25 31  19 20 32  19 24 33  16 23 18  34 35 36  37 35 14  13 14 29  19 32 38  20 32 39  40 41 42  16 17 43  37 44 45  30 46 31  47 46 23  48 49 50  13 28 51  24 27 52  13 41 53  34 54 36  55 20 39  16 22 56  40 41 53  48 41 42  26 27 57  58 42 59  26 22 23  17 43 60  30 25 21  0 61 62  63 44 45  19 38 33  30 28 46  35 14 64  34 35 65  0 1 66  12 1 67  68 69 70  71 61 72  24 25 57  47 23 18  69 32 38  37 35 45  73 35 65  71 67 18  26 46 23  55 20 44  74 75 76  73 35 45  47 71 18  48 49 77  78 77 42  17 67 18  20 21 79  30 21 79  55 76 80  13 41 15  19 25 21  75 76 80  7 81 82  40 83 53  84 49 50  47 71 72  1 67 66  85 64 86  40 58 42  20 44 79  85 15 64  87 83 53  47 46 88  22 56 89  24 27 57  90 70 39  91 43 92  63 45 93  0 66 61  69 32 70  6 7 82  90 76 39  12 67 94  90 68 70  55 44 80  30 28 29  40 58 83  73 45 93  17 60 94  48 41 50  87 61 72  74 90 76  78 42 59  71 66 61  71 67 66  37 44 79  85 50 86  63 44 80  6 10 95  85 41 15  16 43 92  58 83 62  36 64 86  48 77 42  35 36 64  11 12 94  37 14 29  14 15 64  84 50 86  26 57 31  27 22 89  54 36 86  0 10 62  84 49 96  85 41 50  83 61 62  91 56 92  25 57 31  97 98 96  24 52 33  17 67 94  11 60 94  26 46 31  6 82 95  97 49 96  28 46 88  58 95 62  28 51 88  55 76 39  54 98 96  54 84 86  16 56 92  30 29 79  32 70 39  58 82 95  87 51 53  78 77 99  72 51 88  78 81 99  10 95 62  63 100 80  54 84 96  87 72 51  47 72 88  63 100 93  37 29 79  58 82 59  75 100 80  87 83 61  78 81 59  81 82 59  13 51 53  </DataArray>
<DataArray  type="UInt32"  Name="offsets"  format="ascii">3 6 9 12 15 18 21 24 27 30 33 36 39 42 45 48 51 54 57 60 63 66 69 72 75 78 81 84 87 90 93 96 99 102 105 108 111 114 117 120 123 126 129 132 135 138 141 144 147 150 153 156 159 162 165 168 171 174 177 180 183 186 189 192 195 198 201 204 207 210 213 216 219 222 225 228 231 234 237 240 243 246 249 252 255 258 261 264 267 270 273 276 279 282 285 288 291 294 297 300 303 306 309 312 315 318 321 324 327 330 333 336 339 342 345 348 351 354 357 360 363 366 369 372 375 378 381 384 387 390 393 396 399 402 405 408 411 414 417 420 423 426 429 432 435 438 441 444 447 450 453 456 459 462 465 468 471 474 477 480 483 486 489 492 495 498 501 504 507 </DataArray>
<DataArray  type="UInt8"  Name="types"  format="ascii">5 5 5 5 5 5 5 5 5 5 5 5 5 5 5 5 5 5 5 5 5 5 5 5 5 5 5 5 5 5 5 5 5 5 5 5 5 5 5 5 5 5 5 5 5 5 5 5 5 5 5 5 5 5 5 5 5 5 5 5 5 5 5 5 5 5 5 5 5 5 5 5 5 5 5 5 5 5 5 5 5 5 5 5 5 5 5 5 5 5 5 5 5 5 5 5 5 5 5 5 5 5 5 5 5 5 5 5 5 5 5 5 5 5 5 5 5 5 5 5 5 5 5 5 5 5 5 5 5 5 5 5 5 5 5 5 5 5 5 5 5 5 5 5 5 5 5 5 5 5 5 5 5 5 5 5 5 5 5 5 5 5 5 5 5 5 5 5 5 </DataArray>
</Cells>
<PointData  Vectors="f_43-1"> 
<DataArray  type="Float64"  Name="f_43-1"  NumberOfComponents="3" format="ascii">6.7772396920996963e-07 -1.3406681465273669e-04 0.0000000000000000e+00  1.3122111901385598e-06 -1.3018111823337667e-04 0.0000000000000000e+00  -5.9341891079769168e-07 -1.3129615842253709e-04 0.0000000000000000e+00  -3.3570596190225774e-06 -1.2704515503617720e-04 0.0000000000000000e+00  -6.1675961313214688e-07 -1.2390765517239941e-04 0.0000000000000000e+00  -6.3494189690535804e-07 -1.2804175072121424e-04 0.0000000000000000e+00  -4.6023793682064853e-06 -1.3264262438574158e-04 0.0000000000000000e+00  -7.0518726049107734e-06 -1.3194147553797196e-04 0.0000000000000000e+00  -5.6715786617652668e-06 -1.2941424382005885e-04 0.0000000000000000e+00  -2.8193067122569005e-06 -1.3027269225617403e-04 0.0000000000000000e+00  -2.0520298930247608e-06 -1.3334757830453194e-04 0.0000000000000000e+00  2.7153091455684342e-06 -1.2279822331492151e-04 0.0000000000000000e+00  2.0157437982226086e-06 -1.2648467927864191e-04 0.0000000000000000e+00  -5.9195040720161660e-07 -7.3645069121465215e-05 0.0000000000000000e+00  -6.3055415220514150e-07 -5.6760453691771887e-05 0.0000000000000000e+00  -1.0193988649680113e-06 -6.5577220881414707e-05 0.0000000000000000e+00  2.5719805154809858e-06 -9.4926405152033280e-05 0.0000000000000000e+00  2.2873432257130693e-06 -1.0765805058299688e-04 0.0000000000000000e+00  1.6776351457140678e-06 -9.9130932077845822e-05 0.0000000000000000e+00  1.2186359308757249e-06 -4.2313315983667427e-05 0.0000000000000000e+00  4.9571478650719182e-07 -3.4653351435214902e-05 0.0000000000000000e+00  7.9379677441103362e-07 -4.7577952074746537e-05 0.0000000000000000e+00  2.7256739965791703e-06 -8.0441014206270205e-05 0.0000000000000000e+00  1.8440547772398406e-06 -8.5238921684336802e-05 0.0000000000000000e+00  2.0435878516855604e-06 -5.4671029741797708e-05 0.0000000000000000e+00  1.3632763457914578e-06 -5.5594483777383838e-05 0.0000000000000000e+00  1.9033894715711690e-06 -7.3326939420130061e-05 0.0000000000000000e+00  2.7695384174139834e-06 -6.8607623470741467e-05 0.0000000000000000e+00  3.5942690709474592e-07 -7.1733018577986194e-05 0.0000000000000000e+00  -4.9339802134668478e-08 -5.8751427923828703e-05 0.0000000000000000e+00  6.4861447803526127e-07 -5.8907376941895723e-05 0.0000000000000000e+00  1.3917527000487121e-06 -6.5208019039997379e-05 0.0000000000000000e+00  6.8556899586306985e-07 -2.5918942396106814e-05 0.0000000000000000e+00  1.9971304982255477e-06 -4.3982185561258952e-05 0.0000000000000000e+00  -9.9954100161839027e-07 -3.9263298911414704e-05 0.0000000000000000e+00  -7.2721107384212814e-07 -4.3811200705603590e-05 0.0000000000000000e+00  -1.1577869953798040e-06 -4.9236500447170555e-05 0.0000000000000000e+00  -2.4911225644835367e-07 -4.6332719409262179e-05 0.0000000000000000e+00  1.3096497103863358e-06 -3.2187568739300855e-05 0.0000000000000000e+00  2.9667745057723283e-07 -1.7345026127059132e-05 0.0000000000000000e+00  -1.9264702684391754e-06 -9.4654137942066141e-05 0.0000000000000000e+00  -1.6443667760579992e-06 -7.8167746375219129e-05 0.0000000000000000e+00  -2.8473891863936586e-06 -9.3577448231609885e-05 0.0000000000000000e+00  3.1469813835832254e-06 -1.0492604435560853e-04 0.0000000000000000e+00  4.9252497279054607e-08 -3.3672325266951474e-05 0.0000000000000000e+00  -3.2116420961006925e-07 -3.4568599431463313e-05 0.0000000000000000e+00  1.1106799556705020e-06 -7.4252200921355583e-05 0.0000000000000000e+00  1.0966716424777070e-06 -8.9546675663417359e-05 0.0000000000000000e+00  -2.6232571944767168e-06 -8.1441799205025112e-05 0.0000000000000000e+00  -2.7303743362513009e-06 -7.2243610744570375e-05 0.0000000000000000e+00  -1.9887708388657475e-06 -7.0074426455655735e-05 0.0000000000000000e+00  -1.1576790992881716e-07 -8.4018760150569817e-05 0.0000000000000000e+00  2.6479734799817945e-06 -5.4556292760528647e-05 0.0000000000000000e+00  -1.0356648912754057e-06 -8.7232844924436427e-05 0.0000000000000000e+00  -1.5263851217905768e-06 -5.0610227199961364e-05 0.0000000000000000e+00  1.9832726361379501e-07 -2.2918819766400564e-05 0.0000000000000000e+00  3.1781366805296948e-06 -8.9393353882503599e-05 0.0000000000000000e+00  1.9486352624648696e-06 -6.3521398866113685e-05 0.0000000000000000e+00  -2.8045973163084917e-06 -1.0988441414895307e-04 0.0000000000000000e+00  -3.8870618249224663e-06 -1.0770208971036601e-04 0.0000000000000000e+00  2.8938947933569833e-06 -1.1386957870596138e-04 0.0000000000000000e+00  -5.1092741779683915e-08 -1.0993749919956323e-04 0.0000000000000000e+00  -1.4448805992884663e-06 -1.1975228258910534e-04 0.0000000000000000e+00  -1.2676056605217338e-07 -2.6149263326454456e-05 0.0000000000000000e+00  -1.0348304755097081e-06 -5.5102491131262262e-05 0.0000000000000000e+00  -7.1463205754457562e-07 -3.3923409556727752e-05 0.0000000000000000e+00  8.5949863862356387e-07 -1.1803564622492160e-04 0.0000000000000000e+00  1.5978449998032202e-06 -1.1461965064102579e-04 0.0000000000000000e+00  0.0000000000000000e+00 0.0000000000000000e+00 0.0000000000000000e+00  6.8778290857079988e-07 -1.7876806002073667e-05 0.0000000000000000e+00  3.0593085221624720e-07 -1.1460610525243588e-05 0.0000000000000000e+00  9.2121073689713648e-07 -1.0435141871410402e-04 0.0000000000000000e+00  3.7225001834637467e-07 -9.3450227959195203e-05 0.0000000000000000e+00  -4.5399705772966524e-07 -2.9443737778570322e-05 0.0000000000000000e+00  0.0000000000000000e+00 0.0000000000000000e+00 0.0000000000000000e+00  -1.9298299042334172e-08 -1.0081932893919424e-05 0.0000000000000000e+00  8.9418448118952328e-08 -1.0991301829520884e-05 0.0000000000000000e+00  -3.5395520068539559e-06 -8.7789609966733639e-05 0.0000000000000000e+00  -4.0062763780657447e-06 -1.0058984520996787e-04 0.0000000000000000e+00  2.4518063227572579e-07 -4.6934306465030255e-05 0.0000000000000000e+00  8.9839709758774896e-09 -1.9949721571788307e-05 0.0000000000000000e+00  -5.4530417372744304e-06 -1.1404196350705414e-04 0.0000000000000000e+00  -4.7466483083400074e-06 -1.2074047182019836e-04 0.0000000000000000e+00  -1.2282420911216939e-06 -1.0471648905788889e-04 0.0000000000000000e+00  -1.9588934470377379e-06 -6.2275157285707593e-05 0.0000000000000000e+00  -1.3998136474436165e-06 -6.4362499539548837e-05 0.0000000000000000e+00  -1.5081673550444028e-06 -5.8090921861421327e-05 0.0000000000000000e+00  -4.0393851855988346e-07 -9.6370084336633259e-05 0.0000000000000000e+00  6.0291637509739575e-07 -8.0913668279193433e-05 0.0000000000000000e+00  3.1724425014331216e-06 -7.6196344954789492e-05 0.0000000000000000e+00  0.0000000000000000e+00 0.0000000000000000e+00 0.0000000000000000e+00  3.7726138448402634e-06 -9.8738017774730312e-05 0.0000000000000000e+00  3.1602778354890360e-06 -9.7121642754615869e-05 0.0000000000000000e+00  -2.7309799875580508e-07 -2.3801926062124531e-05 0.0000000000000000e+00  2.2932911525048501e-06 -1.1704187855163367e-04 0.0000000000000000e+00  -3.1467901976985629e-06 -1.2219699548959324e-04 0.0000000000000000e+00  -2.0094528258979264e-06 -5.7185705464451974e-05 0.0000000000000000e+00  -2.4520532401698466e-06 -6.0742326657085972e-05 0.0000000000000000e+00  -1.7231659087333330e-06 -4.7436101280483835e-05 0.0000000000000000e+00  -4.7233566424078468e-06 -1.0016932072554603e-04 0.0000000000000000e+00  -1.2116858645067439e-07 -1.7178466156626453e-05 0.0000000000000000e+00  </DataArray> 
</PointData> 
</Piece>
</UnstructuredGrid>
</VTKFile>