<?xml version="1.0"?>
<VTKFile type="UnstructuredGrid"  version="0.1"  >
<UnstructuredGrid>
<Piece  NumberOfPoints="103" NumberOfCells="166">
<Points>
<DataArray  type="Float64"  NumberOfComponents="3"  format="ascii">0.4655705597315852 0.21 0  0.4730388619686996 0.21 0  0.4693047108503577 0.2040749161535231 0  0.4618364086130068 0.2056971942287359 0  0.4581022574944306 0.21 0  0.5022733717445609 0.2484520140959261 0  0.5039200503329727 0.2634569969024956 0  0.4870587955368383 0.2511092200731516 0  0.4619845553363554 0.2471559623297018 0  0.4744155700740079 0.2566595549135983 0  0.4718174066442032 0.2448602332187449 0  0.5209814004512184 0.2362962593649592 0  0.5347760817351684 0.2414500964404198 0  0.5183393333239584 0.2464065549333135 0  0.5166834276845828 0.2571581640138182 0  0.4421897352483806 0.3061937447056332 0  0.418091171977014 0.3243162836372635 0  0.412607471649106 0.2990503898016255 0  0.4787056372270673 0.2371901345199761 0  0.4898985359610427 0.2395108277223441 0  0.4302139512950107 0.2879708289588951 0  0.5380469068795991 0.270190988877121 0  0.5593867837568711 0.2625481287604455 0  0.5487739828661812 0.2837987172973246 0  0.4852224147682477 0.2693506158480865 0  0.537795959080102 0.3217164911732622 0  0.5084674509460629 0.3444400826937225 0  0.512571303534115 0.315294881441146 0  0.4679743527986476 0.2938700081288894 0  0.4504932786869968 0.2799586344600427 0  0.4333214399877798 0.2707568063501644 0  0.4117097904773068 0.2792362674983541 0  0.4219952157594144 0.2615029378934271 0  0.3938502830802056 0.3095497484347601 0  0.3641563190507836 0.3179653487982807 0  0.3934922780344484 0.3350540779420794 0  0.4687683012296924 0.2234572950360006 0  0.4652183412607249 0.234253800772318 0  0.4767526104577227 0.2273866629412239 0  0.4707920865830447 0.3486070579413962 0  0.4787676469414335 0.3785383868246253 0  0.3754967205959606 0.2925860795314694 0  0.4626056464247933 0.2175583716511612 0  0.4543958902951323 0.217783002687627 0  0.4618276563023947 0.226295708468006 0  0.544963993717515 0.2555062458890662 0  0.4601355054144107 0.2625386919569297 0  0.4713424846317688 0.2745508899070743 0  0.5084573036363184 0.2395108277223441 0  0.5299710643811397 0.2566376774421922 0  0.541625169083316 0.3526746646055688 0  0.4386378054355863 0.2427664002734886 0  0.4420138570927455 0.2303582032589531 0  0.4274409436629797 0.2358490737568498 0  0.4895894057788134 0.3280526958589806 0  0.4537654266604936 0.2283937178128906 0  0.3871536388992142 0.2768042805511501 0  0.398571556794488 0.2667712515333163 0  0.398267784857306 0.2897726550924405 0  0.5173146390988945 0.3796900489573174 0  0.5292128724209423 0.2936972872082567 0  0.5209430201332119 0.2710369260536757 0  0.507058739830649 0.2805607505285516 0  0.4904006859619667 0.3067892894525832 0  0.4892189727163938 0.2873772533228455 0  0.4192410422903348 0.3546402176185522 0  0.4444416418673275 0.3371826323410143 0  0.4460062899873121 0.3720706817615101 0  0.4676405937283705 0.3189200602945363 0  0.4510553949639345 0.2400598894424664 0  0.4244157537195716 0.2482530512201678 0  0.3717783033973493 0.3492929215517201 0  0.5504647692515866 0.2417078359721865 0  0.4105467584982695 0.2658772111092724 0  0.5869673343225223 0.41 0  0.5770529515268702 0.3629450529032476 0  0.5527077665762991 0.3828459005111343 0  0.448875629425473 0.2527683700708778 0  0.4140433986437475 0.2417572010675891 0  0.3766159229561977 0.3830577447225878 0  0.4149595575946646 0.3834673183778856 0  0.3949496524092438 0.3601144457090416 0  0.5683897549737816 0.3290580395153129 0  0.3436434970543172 0.3743236175823911 0  0.4357040734592776 0.2558482019948566 0  0.3826544750917113 0.2574975795502557 0  0.5561563723763112 0.3041501920577169 0  0.5631143150331265 0.2366473934541688 0  0.556227780909367 0.2515606281824664 0  0.4993542269391089 0.2308107468212473 0  0.4869999746943883 0.2308048359320609 0  0.4091898654769304 0.2539103800220315 0  0.5114371803269665 0.2974349400710795 0  0.4693357546089872 0.2160476853278769 0  0.4767730130872752 0.2184019876485795 0  0.4895008759292634 0.41 0  0.4433053055145528 0.41 0  0.5373680609412221 0.41 0  0.4997232129797319 0.2393335372925151 0  0.3987229542475914 0.41 0  0.3556974926297398 0.41 0  0.4846260107628763 0.2228898464509046 0  0.4460825720969575 0.2652057710885948 0  </DataArray>
</Points>
<Cells>
<DataArray  type="UInt32"  Name="connectivity"  format="ascii">0 1 2  0 2 3  4 0 3  5 6 7  8 9 10  11 12 13  5 14 13  15 16 17  18 19 7  15 20 17  21 22 23  24 6 7  25 26 27  15 28 29  30 31 32  33 34 35  36 37 38  18 7 10  39 26 40  33 34 41  42 43 44  21 22 45  15 20 29  30 31 20  46 9 47  46 8 9  5 48 13  12 49 13  25 26 50  51 52 53  39 26 54  5 14 6  55 43 44  56 57 58  26 59 40  24 9 47  21 60 61  62 24 6  31 57 58  18 37 38  4 0 42  63 28 64  65 66 67  56 41 58  63 28 68  55 37 69  51 70 53  71 34 35  33 16 17  30 20 29  15 28 68  62 60 61  72 12 45  55 52 69  31 32 73  74 75 76  46 8 77  39 66 67  70 53 78  21 60 23  79 80 81  33 16 35  62 24 64  25 50 82  65 16 35  15 16 66  71 83 79  9 7 10  51 77 69  65 16 66  51 70 84  56 85 57  33 41 58  60 23 86  24 9 7  72 87 88  14 61 49  8 77 69  89 19 90  91 70 78  8 37 69  63 27 54  4 42 43  62 60 92  15 68 66  39 68 66  0 42 93  1 94 93  28 64 47  91 70 32  46 29 47  24 64 47  25 60 86  95 96 40  51 52 69  26 50 59  96 67 40  51 77 84  21 61 49  39 68 54  31 57 73  18 19 90  97 95 59  26 27 54  89 19 98  18 38 90  0 1 93  89 48 98  75 50 82  70 32 84  99 100 79  65 35 81  31 20 17  18 37 10  25 60 27  14 49 13  101 38 90  100 83 79  74 97 76  65 80 81  77 84 102  99 79 80  25 82 86  14 6 61  62 64 92  30 32 84  46 29 102  30 84 102  30 29 102  96 99 80  36 37 44  12 45 49  11 48 13  95 59 40  28 29 47  71 79 81  63 68 54  63 64 92  36 42 93  36 94 93  72 45 88  50 59 76  55 37 44  8 37 10  46 77 102  39 67 40  5 19 98  5 48 98  62 6 61  36 42 44  36 94 38  101 94 38  63 27 92  60 27 92  5 19 7  75 50 76  91 57 73  65 67 80  31 17 58  21 45 49  22 45 88  97 59 76  71 35 81  33 17 58  96 67 80  91 32 73  </DataArray>
<DataArray  type="UInt32"  Name="offsets"  format="ascii">3 6 9 12 15 18 21 24 27 30 33 36 39 42 45 48 51 54 57 60 63 66 69 72 75 78 81 84 87 90 93 96 99 102 105 108 111 114 117 120 123 126 129 132 135 138 141 144 147 150 153 156 159 162 165 168 171 174 177 180 183 186 189 192 195 198 201 204 207 210 213 216 219 222 225 228 231 234 237 240 243 246 249 252 255 258 261 264 267 270 273 276 279 282 285 288 291 294 297 300 303 306 309 312 315 318 321 324 327 330 333 336 339 342 345 348 351 354 357 360 363 366 369 372 375 378 381 384 387 390 393 396 399 402 405 408 411 414 417 420 423 426 429 432 435 438 441 444 447 450 453 456 459 462 465 468 471 474 477 480 483 486 489 492 495 498 </DataArray>
<DataArray  type="UInt8"  Name="types"  format="ascii">5 5 5 5 5 5 5 5 5 5 5 5 5 5 5 5 5 5 5 5 5 5 5 5 5 5 5 5 5 5 5 5 5 5 5 5 5 5 5 5 5 5 5 5 5 5 5 5 5 5 5 5 5 5 5 5 5 5 5 5 5 5 5 5 5 5 5 5 5 5 5 5 5 5 5 5 5 5 5 5 5 5 5 5 5 5 5 5 5 5 5 5 5 5 5 5 5 5 5 5 5 5 5 5 5 5 5 5 5 5 5 5 5 5 5 5 5 5 5 5 5 5 5 5 5 5 5 5 5 5 5 5 5 5 5 5 5 5 5 5 5 5 5 5 5 5 5 5 5 5 5 5 5 5 5 5 5 5 5 5 5 5 5 5 5 5 </DataArray>
</Cells>
<PointData  Vectors="f_43-1"> 
<DataArray  type="Float64"  Name="f_43-1"  NumberOfComponents="3" format="ascii">-4.1390849715262787e-05 5.1804912021918685e-04 0.0000000000000000e+00  -3.9670004946865899e-05 5.2757105427430305e-04 0.0000000000000000e+00  -3.2862548770210227e-05 5.2497448701177281e-04 0.0000000000000000e+00  -3.6019930758888353e-05 5.1435294670665517e-04 0.0000000000000000e+00  -4.3152996229545713e-05 5.0733368551096375e-04 0.0000000000000000e+00  -2.7809535442352807e-05 4.1091339486844529e-04 0.0000000000000000e+00  -2.4972611706055063e-05 3.6187737530471832e-04 0.0000000000000000e+00  -2.8983273668759820e-05 3.9264023305416677e-04 0.0000000000000000e+00  -3.2837017559662042e-05 3.8283960851354484e-04 0.0000000000000000e+00  -2.9214564390255680e-05 3.6503156491637776e-04 0.0000000000000000e+00  -3.2139460210292040e-05 4.0041459377370260e-04 0.0000000000000000e+00  -2.7860794226177973e-05 4.6246342230483648e-04 0.0000000000000000e+00  -2.5904106433177516e-05 4.4618108177034194e-04 0.0000000000000000e+00  -2.6544941785582627e-05 4.2469240649608273e-04 0.0000000000000000e+00  -2.4933688731598882e-05 3.8694715472570318e-04 0.0000000000000000e+00  -2.0194827725670916e-05 2.0716042717270787e-04 0.0000000000000000e+00  -1.6638637029735130e-05 1.5204073153687528e-04 0.0000000000000000e+00  -2.2559260729232308e-05 1.9667919430258775e-04 0.0000000000000000e+00  -3.2880645444611363e-05 4.3285288375015347e-04 0.0000000000000000e+00  -3.0891663541581516e-05 4.3411533925612693e-04 0.0000000000000000e+00  -2.4931714329275624e-05 2.3818928845349571e-04 0.0000000000000000e+00  -2.1134976442851736e-05 3.4559702023609823e-04 0.0000000000000000e+00  -2.0836847210737886e-05 3.6522698722677046e-04 0.0000000000000000e+00  -1.8258473524570744e-05 3.0102549626097254e-04 0.0000000000000000e+00  -2.5515794012688605e-05 3.3397693773520398e-04 0.0000000000000000e+00  -1.3038892664293273e-05 1.9887659484236974e-04 0.0000000000000000e+00  -1.0548596551403487e-05 1.4348254738948704e-04 0.0000000000000000e+00  -1.5268682210054026e-05 2.1514313449742733e-04 0.0000000000000000e+00  -2.1694618774193145e-05 2.5474396564508439e-04 0.0000000000000000e+00  -2.5874533646006101e-05 2.7739197500214769e-04 0.0000000000000000e+00  -2.9277462093382853e-05 2.8281282924712465e-04 0.0000000000000000e+00  -2.7790601019650237e-05 2.3643235752061876e-04 0.0000000000000000e+00  -3.2571499883318513e-05 2.9089158903522808e-04 0.0000000000000000e+00  -1.9929847271075824e-05 1.5883516021430975e-04 0.0000000000000000e+00  -1.7016708463841155e-05 1.1825936209980207e-04 0.0000000000000000e+00  -1.4219729270836987e-05 1.1622157335344756e-04 0.0000000000000000e+00  -3.7529827601813489e-05 4.7119111540872970e-04 0.0000000000000000e+00  -3.5549216442389762e-05 4.2886749087709216e-04 0.0000000000000000e+00  -3.5253569671796270e-05 4.6573436234441232e-04 0.0000000000000000e+00  -1.0851077369936360e-05 1.2700136661747646e-04 0.0000000000000000e+00  -5.3896529138719993e-06 6.4856027686960191e-05 0.0000000000000000e+00  -2.3644240524047113e-05 1.6612212268976963e-04 0.0000000000000000e+00  -4.0166794690189700e-05 4.8510616477946027e-04 0.0000000000000000e+00  -4.1797016372437809e-05 4.7245214278887973e-04 0.0000000000000000e+00  -3.8089904652757532e-05 4.5234219670010222e-04 0.0000000000000000e+00  -2.2969400843353091e-05 3.9442854808734574e-04 0.0000000000000000e+00  -2.9301721699609372e-05 3.3432990344911610e-04 0.0000000000000000e+00  -2.5597388854486529e-05 3.0938502364955895e-04 0.0000000000000000e+00  -2.8656093861257245e-05 4.4550826460375303e-04 0.0000000000000000e+00  -2.3914332313941798e-05 3.9105899458592524e-04 0.0000000000000000e+00  -8.2533346880820333e-06 1.2438556142146519e-04 0.0000000000000000e+00  -3.6861721760159063e-05 3.6608154275919662e-04 0.0000000000000000e+00  -4.0235122786099488e-05 4.0971336123671434e-04 0.0000000000000000e+00  -4.0383364589935773e-05 3.6810632907138027e-04 0.0000000000000000e+00  -1.4033696987520554e-05 1.7894837389129483e-04 0.0000000000000000e+00  -3.8922798319029980e-05 4.3408393016131476e-04 0.0000000000000000e+00  -2.8470327607247771e-05 2.0760017752332574e-04 0.0000000000000000e+00  -3.1656048427413585e-05 2.4378761382981342e-04 0.0000000000000000e+00  -2.4982540102186339e-05 1.9880846184719929e-04 0.0000000000000000e+00  -4.6941063267504152e-06 6.4920277967740116e-05 0.0000000000000000e+00  -1.7934779453996852e-05 2.7467138186476294e-04 0.0000000000000000e+00  -2.2257744650752285e-05 3.4242092126458856e-04 0.0000000000000000e+00  -2.1652131835045548e-05 3.1012542910502562e-04 0.0000000000000000e+00  -1.7899292563667353e-05 2.3205310694776837e-04 0.0000000000000000e+00  -2.1655304736661502e-05 2.8378920152634715e-04 0.0000000000000000e+00  -1.0363316822691282e-05 9.6567443566357986e-05 0.0000000000000000e+00  -1.3596792716855581e-05 1.4162568701772126e-04 0.0000000000000000e+00  -6.8835157093337957e-06 7.2409739171206940e-05 0.0000000000000000e+00  -1.6596269227859297e-05 1.9284299067170334e-04 0.0000000000000000e+00  -3.6090311009014232e-05 3.9199411321388748e-04 0.0000000000000000e+00  -3.6543571677200477e-05 3.2846068954198095e-04 0.0000000000000000e+00  -1.0891804470304624e-05 8.1718916937005524e-05 0.0000000000000000e+00  -2.4763726511268642e-05 4.4469759994108187e-04 0.0000000000000000e+00  -3.1729063982536446e-05 2.6391975868991048e-04 0.0000000000000000e+00  0.0000000000000000e+00 0.0000000000000000e+00 0.0000000000000000e+00  -5.8817629297898022e-06 9.6178437111505479e-05 0.0000000000000000e+00  -3.7286562836603201e-06 5.7185024585102206e-05 0.0000000000000000e+00  -3.2888895598369433e-05 3.5050179970447026e-04 0.0000000000000000e+00  -3.9554860574875963e-05 3.2746757985693559e-04 0.0000000000000000e+00  -4.7443127775696632e-06 3.7166532582125410e-05 0.0000000000000000e+00  -4.8683220442404256e-06 4.4882393625125287e-05 0.0000000000000000e+00  -9.1970358688160183e-06 7.7060378873429142e-05 0.0000000000000000e+00  -1.0605213099024147e-05 1.7401243391223213e-04 0.0000000000000000e+00  -5.6949328224598696e-06 3.8925125426581350e-05 0.0000000000000000e+00  -3.3280480727398928e-05 3.2475249531011832e-04 0.0000000000000000e+00  -3.4535328160626081e-05 2.3446950458149709e-04 0.0000000000000000e+00  -1.4734014020379333e-05 2.4088650452274633e-04 0.0000000000000000e+00  -2.4836204498696101e-05 4.6140337778416760e-04 0.0000000000000000e+00  -2.2810412438821617e-05 4.0570673141012483e-04 0.0000000000000000e+00  -3.1187343060721173e-05 4.7211618690436738e-04 0.0000000000000000e+00  -3.2944458605880920e-05 4.6287357490376569e-04 0.0000000000000000e+00  -3.5609310337011335e-05 2.8904578162708834e-04 0.0000000000000000e+00  -1.8392197716478216e-05 2.6268766434372608e-04 0.0000000000000000e+00  -3.9136452069211376e-05 4.9953147172026690e-04 0.0000000000000000e+00  -3.7130325285871147e-05 4.9917299521636200e-04 0.0000000000000000e+00  0.0000000000000000e+00 0.0000000000000000e+00 0.0000000000000000e+00  0.0000000000000000e+00 0.0000000000000000e+00 0.0000000000000000e+00  0.0000000000000000e+00 0.0000000000000000e+00 0.0000000000000000e+00  -2.9693227714326499e-05 4.4137871057735848e-04 0.0000000000000000e+00  0.0000000000000000e+00 0.0000000000000000e+00 0.0000000000000000e+00  0.0000000000000000e+00 0.0000000000000000e+00 0.0000000000000000e+00  -3.4817794206143785e-05 4.9004954019007691e-04 0.0000000000000000e+00  -2.9862431789324202e-05 3.1209202326654416e-04 0.0000000000000000e+00  </DataArray> 
</PointData> 
</Piece>
</UnstructuredGrid>
</VTKFile>