<?xml version="1.0"?>
<VTKFile type="UnstructuredGrid"  version="0.1"  >
<UnstructuredGrid>
<Piece  NumberOfPoints="103" NumberOfCells="166">
<Points>
<DataArray  type="Float64"  NumberOfComponents="3"  format="ascii">0.4655705597315852 0.21 0  0.4730388619686996 0.21 0  0.4693047108503577 0.2040749161535231 0  0.4618364086130068 0.2056971942287359 0  0.4581022574944306 0.21 0  0.5022733717445609 0.2484520140959261 0  0.5039200503329727 0.2634569969024956 0  0.4870587955368383 0.2511092200731516 0  0.4619845553363554 0.2471559623297018 0  0.4744155700740079 0.2566595549135983 0  0.4718174066442032 0.2448602332187449 0  0.5209814004512184 0.2362962593649592 0  0.5347760817351684 0.2414500964404198 0  0.5183393333239584 0.2464065549333135 0  0.5166834276845828 0.2571581640138182 0  0.4421897352483806 0.3061937447056332 0  0.418091171977014 0.3243162836372635 0  0.412607471649106 0.2990503898016255 0  0.4787056372270673 0.2371901345199761 0  0.4898985359610427 0.2395108277223441 0  0.4302139512950107 0.2879708289588951 0  0.5380469068795991 0.270190988877121 0  0.5593867837568711 0.2625481287604455 0  0.5487739828661812 0.2837987172973246 0  0.4852224147682477 0.2693506158480865 0  0.537795959080102 0.3217164911732622 0  0.5084674509460629 0.3444400826937225 0  0.512571303534115 0.315294881441146 0  0.4679743527986476 0.2938700081288894 0  0.4504932786869968 0.2799586344600427 0  0.4333214399877798 0.2707568063501644 0  0.4117097904773068 0.2792362674983541 0  0.4219952157594144 0.2615029378934271 0  0.3938502830802056 0.3095497484347601 0  0.3641563190507836 0.3179653487982807 0  0.3934922780344484 0.3350540779420794 0  0.4687683012296924 0.2234572950360006 0  0.4652183412607249 0.234253800772318 0  0.4767526104577227 0.2273866629412239 0  0.4707920865830447 0.3486070579413962 0  0.4787676469414335 0.3785383868246253 0  0.3754967205959606 0.2925860795314694 0  0.4626056464247933 0.2175583716511612 0  0.4543958902951323 0.217783002687627 0  0.4618276563023947 0.226295708468006 0  0.544963993717515 0.2555062458890662 0  0.4601355054144107 0.2625386919569297 0  0.4713424846317688 0.2745508899070743 0  0.5084573036363184 0.2395108277223441 0  0.5299710643811397 0.2566376774421922 0  0.541625169083316 0.3526746646055688 0  0.4386378054355863 0.2427664002734886 0  0.4420138570927455 0.2303582032589531 0  0.4274409436629797 0.2358490737568498 0  0.4895894057788134 0.3280526958589806 0  0.4537654266604936 0.2283937178128906 0  0.3871536388992142 0.2768042805511501 0  0.398571556794488 0.2667712515333163 0  0.398267784857306 0.2897726550924405 0  0.5173146390988945 0.3796900489573174 0  0.5292128724209423 0.2936972872082567 0  0.5209430201332119 0.2710369260536757 0  0.507058739830649 0.2805607505285516 0  0.4904006859619667 0.3067892894525832 0  0.4892189727163938 0.2873772533228455 0  0.4192410422903348 0.3546402176185522 0  0.4444416418673275 0.3371826323410143 0  0.4460062899873121 0.3720706817615101 0  0.4676405937283705 0.3189200602945363 0  0.4510553949639345 0.2400598894424664 0  0.4244157537195716 0.2482530512201678 0  0.3717783033973493 0.3492929215517201 0  0.5504647692515866 0.2417078359721865 0  0.4105467584982695 0.2658772111092724 0  0.5869673343225223 0.41 0  0.5770529515268702 0.3629450529032476 0  0.5527077665762991 0.3828459005111343 0  0.448875629425473 0.2527683700708778 0  0.4140433986437475 0.2417572010675891 0  0.3766159229561977 0.3830577447225878 0  0.4149595575946646 0.3834673183778856 0  0.3949496524092438 0.3601144457090416 0  0.5683897549737816 0.3290580395153129 0  0.3436434970543172 0.3743236175823911 0  0.4357040734592776 0.2558482019948566 0  0.3826544750917113 0.2574975795502557 0  0.5561563723763112 0.3041501920577169 0  0.5631143150331265 0.2366473934541688 0  0.556227780909367 0.2515606281824664 0  0.4993542269391089 0.2308107468212473 0  0.4869999746943883 0.2308048359320609 0  0.4091898654769304 0.2539103800220315 0  0.5114371803269665 0.2974349400710795 0  0.4693357546089872 0.2160476853278769 0  0.4767730130872752 0.2184019876485795 0  0.4895008759292634 0.41 0  0.4433053055145528 0.41 0  0.5373680609412221 0.41 0  0.4997232129797319 0.2393335372925151 0  0.3987229542475914 0.41 0  0.3556974926297398 0.41 0  0.4846260107628763 0.2228898464509046 0  0.4460825720969575 0.2652057710885948 0  </DataArray>
</Points>
<Cells>
<DataArray  type="UInt32"  Name="connectivity"  format="ascii">0 1 2  0 2 3  4 0 3  5 6 7  8 9 10  11 12 13  5 14 13  15 16 17  18 19 7  15 20 17  21 22 23  24 6 7  25 26 27  15 28 29  30 31 32  33 34 35  36 37 38  18 7 10  39 26 40  33 34 41  42 43 44  21 22 45  15 20 29  30 31 20  46 9 47  46 8 9  5 48 13  12 49 13  25 26 50  51 52 53  39 26 54  5 14 6  55 43 44  56 57 58  26 59 40  24 9 47  21 60 61  62 24 6  31 57 58  18 37 38  4 0 42  63 28 64  65 66 67  56 41 58  63 28 68  55 37 69  51 70 53  71 34 35  33 16 17  30 20 29  15 28 68  62 60 61  72 12 45  55 52 69  31 32 73  74 75 76  46 8 77  39 66 67  70 53 78  21 60 23  79 80 81  33 16 35  62 24 64  25 50 82  65 16 35  15 16 66  71 83 79  9 7 10  51 77 69  65 16 66  51 70 84  56 85 57  33 41 58  60 23 86  24 9 7  72 87 88  14 61 49  8 77 69  89 19 90  91 70 78  8 37 69  63 27 54  4 42 43  62 60 92  15 68 66  39 68 66  0 42 93  1 94 93  28 64 47  91 70 32  46 29 47  24 64 47  25 60 86  95 96 40  51 52 69  26 50 59  96 67 40  51 77 84  21 61 49  39 68 54  31 57 73  18 19 90  97 95 59  26 27 54  89 19 98  18 38 90  0 1 93  89 48 98  75 50 82  70 32 84  99 100 79  65 35 81  31 20 17  18 37 10  25 60 27  14 49 13  101 38 90  100 83 79  74 97 76  65 80 81  77 84 102  99 79 80  25 82 86  14 6 61  62 64 92  30 32 84  46 29 102  30 84 102  30 29 102  96 99 80  36 37 44  12 45 49  11 48 13  95 59 40  28 29 47  71 79 81  63 68 54  63 64 92  36 42 93  36 94 93  72 45 88  50 59 76  55 37 44  8 37 10  46 77 102  39 67 40  5 19 98  5 48 98  62 6 61  36 42 44  36 94 38  101 94 38  63 27 92  60 27 92  5 19 7  75 50 76  91 57 73  65 67 80  31 17 58  21 45 49  22 45 88  97 59 76  71 35 81  33 17 58  96 67 80  91 32 73  </DataArray>
<DataArray  type="UInt32"  Name="offsets"  format="ascii">3 6 9 12 15 18 21 24 27 30 33 36 39 42 45 48 51 54 57 60 63 66 69 72 75 78 81 84 87 90 93 96 99 102 105 108 111 114 117 120 123 126 129 132 135 138 141 144 147 150 153 156 159 162 165 168 171 174 177 180 183 186 189 192 195 198 201 204 207 210 213 216 219 222 225 228 231 234 237 240 243 246 249 252 255 258 261 264 267 270 273 276 279 282 285 288 291 294 297 300 303 306 309 312 315 318 321 324 327 330 333 336 339 342 345 348 351 354 357 360 363 366 369 372 375 378 381 384 387 390 393 396 399 402 405 408 411 414 417 420 423 426 429 432 435 438 441 444 447 450 453 456 459 462 465 468 471 474 477 480 483 486 489 492 495 498 </DataArray>
<DataArray  type="UInt8"  Name="types"  format="ascii">5 5 5 5 5 5 5 5 5 5 5 5 5 5 5 5 5 5 5 5 5 5 5 5 5 5 5 5 5 5 5 5 5 5 5 5 5 5 5 5 5 5 5 5 5 5 5 5 5 5 5 5 5 5 5 5 5 5 5 5 5 5 5 5 5 5 5 5 5 5 5 5 5 5 5 5 5 5 5 5 5 5 5 5 5 5 5 5 5 5 5 5 5 5 5 5 5 5 5 5 5 5 5 5 5 5 5 5 5 5 5 5 5 5 5 5 5 5 5 5 5 5 5 5 5 5 5 5 5 5 5 5 5 5 5 5 5 5 5 5 5 5 5 5 5 5 5 5 5 5 5 5 5 5 5 5 5 5 5 5 5 5 5 5 5 5 </DataArray>
</Cells>
<PointData  Vectors="f_43-1"> 
<DataArray  type="Float64"  Name="f_43-1"  NumberOfComponents="3" format="ascii">2.3655416787615654e-05 -1.4043908968006680e-04 0.0000000000000000e+00  2.3617287921903798e-05 -1.4783340272332622e-04 0.0000000000000000e+00  1.7681399397603246e-05 -1.4251698958687718e-04 0.0000000000000000e+00  1.9350943013613919e-05 -1.3556280005267414e-04 0.0000000000000000e+00  2.3633959770591109e-05 -1.3310441819356291e-04 0.0000000000000000e+00  1.6649524383105903e-05 -1.3559539241328439e-04 0.0000000000000000e+00  1.4521168719865897e-05 -1.2106807274843293e-04 0.0000000000000000e+00  1.6625256421279180e-05 -1.2318732787202960e-04 0.0000000000000000e+00  1.7401405832311965e-05 -1.0957033360831817e-04 0.0000000000000000e+00  1.5981017369793404e-05 -1.1035517613822981e-04 0.0000000000000000e+00  1.7734395725900843e-05 -1.1824010433190895e-04 0.0000000000000000e+00  1.7707214889449895e-05 -1.6211962174641134e-04 0.0000000000000000e+00  1.6200561325832242e-05 -1.6417576051054554e-04 0.0000000000000000e+00  1.6349399662077107e-05 -1.4794705487594073e-04 0.0000000000000000e+00  1.4933927185750488e-05 -1.3446828136857620e-04 0.0000000000000000e+00  9.6912071149934661e-06 -6.0164205244502555e-05 0.0000000000000000e+00  7.4833561427730240e-06 -4.2467459011904039e-05 0.0000000000000000e+00  9.9306553885148275e-06 -5.2775352521097507e-05 0.0000000000000000e+00  1.8866706043175224e-05 -1.2974593906141317e-04 0.0000000000000000e+00  1.8313591857016957e-05 -1.3603708426731354e-04 0.0000000000000000e+00  1.1569914975212016e-05 -6.5741967694321924e-05 0.0000000000000000e+00  1.2357413351631493e-05 -1.2792415224823305e-04 0.0000000000000000e+00  1.1958699410844974e-05 -1.4318611630913543e-04 0.0000000000000000e+00  1.0363302666492769e-05 -1.1409175738031859e-04 0.0000000000000000e+00  1.4129563101590021e-05 -1.0578852234874446e-04 0.0000000000000000e+00  7.1647947793562309e-06 -7.3124025083414878e-05 0.0000000000000000e+00  5.6332498666001050e-06 -4.9618874380703277e-05 0.0000000000000000e+00  8.3557833058117172e-06 -7.4785821815244216e-05 0.0000000000000000e+00  1.1210456245795248e-05 -7.8261350663772286e-05 0.0000000000000000e+00  1.2833329564372427e-05 -8.0071610902303746e-05 0.0000000000000000e+00  1.3741652697540402e-05 -7.6762071848173903e-05 0.0000000000000000e+00  1.2110123475349734e-05 -6.1453400628539969e-05 0.0000000000000000e+00  1.4648715807140779e-05 -7.5225456430230551e-05 0.0000000000000000e+00  8.3454479695123851e-06 -4.1499934278976181e-05 0.0000000000000000e+00  6.6255154597092332e-06 -2.9613880892797175e-05 0.0000000000000000e+00  6.0230118803222508e-06 -3.1182165247012451e-05 0.0000000000000000e+00  2.1223477864788582e-05 -1.3299388395614153e-04 0.0000000000000000e+00  1.9421583393997027e-05 -1.2164828927335141e-04 0.0000000000000000e+00  2.0492782152842120e-05 -1.3663597878537482e-04 0.0000000000000000e+00  5.4862844860187120e-06 -4.0474551537206611e-05 0.0000000000000000e+00  2.7406653953978037e-06 -2.1174754112228223e-05 0.0000000000000000e+00  9.2679567055603487e-06 -4.0873041484427032e-05 0.0000000000000000e+00  2.2267424583498167e-05 -1.3196326653434041e-04 0.0000000000000000e+00  2.2174249618393540e-05 -1.2428548192675181e-04 0.0000000000000000e+00  2.0739124086082991e-05 -1.2483567016270049e-04 0.0000000000000000e+00  1.3720923767367719e-05 -1.4933479534989664e-04 0.0000000000000000e+00  1.5180955082019828e-05 -9.7188520397264172e-05 0.0000000000000000e+00  1.3574576690467638e-05 -9.4362964918500789e-05 0.0000000000000000e+00  1.7765268916059095e-05 -1.4945664053664205e-04 0.0000000000000000e+00  1.4413861657855487e-05 -1.4162843405473557e-04 0.0000000000000000e+00  4.4508195720589248e-06 -4.5989182364989669e-05 0.0000000000000000e+00  1.7771755724013634e-05 -9.5959929993978793e-05 0.0000000000000000e+00  1.9810239400868882e-05 -1.0575643816540332e-04 0.0000000000000000e+00  1.8516638669287260e-05 -9.1476325998343706e-05 0.0000000000000000e+00  7.3933932204705935e-06 -5.9117587069611969e-05 0.0000000000000000e+00  2.0328898177916898e-05 -1.1658965985131789e-04 0.0000000000000000e+00  1.1396119585439154e-05 -5.0767472027356672e-05 0.0000000000000000e+00  1.3071071169129264e-05 -5.9926788907930453e-05 0.0000000000000000e+00  1.0474307050005284e-05 -5.0960709975470707e-05 0.0000000000000000e+00  2.4899287467958776e-06 -2.2917374951315606e-05 0.0000000000000000e+00  1.0138305949792114e-05 -9.9202831212175685e-05 0.0000000000000000e+00  1.2997097126157643e-05 -1.2086098126312732e-04 0.0000000000000000e+00  1.2281434575764356e-05 -1.0544440306818463e-04 0.0000000000000000e+00  9.5951599903984612e-06 -7.6217859681037992e-05 0.0000000000000000e+00  1.1816872383246932e-05 -9.2045077028176051e-05 0.0000000000000000e+00  4.6923932879382508e-06 -2.7629579945806025e-05 0.0000000000000000e+00  6.5275340542541614e-06 -4.2334129707246332e-05 0.0000000000000000e+00  3.3037062297598075e-06 -2.2045157789158509e-05 0.0000000000000000e+00  8.4395157636614056e-06 -6.0207602444081954e-05 0.0000000000000000e+00  1.8408634131861280e-05 -1.0667763610155420e-04 0.0000000000000000e+00  1.6555484574165167e-05 -8.3223701014867939e-05 0.0000000000000000e+00  4.4092224205087708e-06 -2.1351300139985025e-05 0.0000000000000000e+00  1.5110282317872833e-05 -1.7201725112186750e-04 0.0000000000000000e+00  1.3684512412532488e-05 -6.6729298562265518e-05 0.0000000000000000e+00  0.0000000000000000e+00 0.0000000000000000e+00 0.0000000000000000e+00  3.0949108586890986e-06 -3.7713756468719394e-05 0.0000000000000000e+00  1.9887041490063255e-06 -2.1530972759596641e-05 0.0000000000000000e+00  1.6469675281138916e-05 -9.6847391344801471e-05 0.0000000000000000e+00  1.7090938792099039e-05 -7.9146371583918858e-05 0.0000000000000000e+00  1.9626909406159747e-06 -9.9586690019408729e-06 0.0000000000000000e+00  2.1886199723860672e-06 -1.2880165865177709e-05 0.0000000000000000e+00  3.9411803973719089e-06 -2.1103130547457692e-05 0.0000000000000000e+00  5.6856092073243817e-06 -6.7711674024019882e-05 0.0000000000000000e+00  2.1977915227619378e-06 -9.9043353525677625e-06 0.0000000000000000e+00  1.5794641566623102e-05 -8.6522572179526967e-05 0.0000000000000000e+00  1.3320446290100424e-05 -5.4378158669859248e-05 0.0000000000000000e+00  8.1264285656339101e-06 -9.2230195910982671e-05 0.0000000000000000e+00  1.4729977454669861e-05 -1.8589292465310278e-04 0.0000000000000000e+00  1.3433548525911570e-05 -1.5874932896567802e-04 0.0000000000000000e+00  1.9441879826195151e-05 -1.5207472002786872e-04 0.0000000000000000e+00  1.9763011859768589e-05 -1.4207353118734156e-04 0.0000000000000000e+00  1.5176867569887785e-05 -7.0964509105679767e-05 0.0000000000000000e+00  1.0246040280125140e-05 -9.0775474849635901e-05 0.0000000000000000e+00  2.2530842595316215e-05 -1.3937605872702550e-04 0.0000000000000000e+00  2.2046347026250237e-05 -1.4435832525405834e-04 0.0000000000000000e+00  0.0000000000000000e+00 0.0000000000000000e+00 0.0000000000000000e+00  0.0000000000000000e+00 0.0000000000000000e+00 0.0000000000000000e+00  0.0000000000000000e+00 0.0000000000000000e+00 0.0000000000000000e+00  1.8087431493326609e-05 -1.4339857359048981e-04 0.0000000000000000e+00  0.0000000000000000e+00 0.0000000000000000e+00 0.0000000000000000e+00  0.0000000000000000e+00 0.0000000000000000e+00 0.0000000000000000e+00  2.1138771713541557e-05 -1.4745911947496550e-04 0.0000000000000000e+00  1.4696275634309301e-05 -8.7183496936043945e-05 0.0000000000000000e+00  </DataArray> 
</PointData> 
</Piece>
</UnstructuredGrid>
</VTKFile>