<?xml version="1.0"?>
<VTKFile type="UnstructuredGrid"  version="0.1"  >
<UnstructuredGrid>
<Piece  NumberOfPoints="105" NumberOfCells="169">
<Points>
<DataArray  type="Float64"  NumberOfComponents="3"  format="ascii">0.3946216884789568 0.2000000000001512 0  0.4019979587101454 0.1959834479682427 0  0.3946216884797873 0.1943028057712679 0  0.3871533862424271 0.1959250838464788 0  0.4058241418354857 0.19 0  0.3983558395983636 0.19 0  0.3908875373612097 0.19 0  0.4543681063767173 0.1676928600783137 0  0.4456512193123995 0.1563006663224736 0  0.4634554111966759 0.156587601803556 0  0.5019588293971892 0.1448324961346233 0  0.5202014138752529 0.1378594850692911 0  0.5186581766834214 0.1505504706653799 0  0.5461387848636305 0.1174764669537213 0  0.5361687701469152 0.1326608756097835 0  0.5197325460646487 0.1214075108099659 0  0.4953767731769588 0.1188694761679334 0  0.506255180108809 0.1312411055441881 0  0.4552963513014363 0.145444894720247 0  0.4735622322288027 0.1489594066447112 0  0.430606184336534 0.1007106891413896 0  0.4121197549442807 0.08306196356607598 0  0.4341927647953854 0.06945916972568383 0  0.5257318662464058 0.1055286630332995 0  0.5082652246192162 0.1565876018036352 0  0.4474989647342493 0.1297107067022473 0  0.4322147276797816 0.1208036360979848 0  0.4500639844785546 0.1038268107662773 0  0.4538259418580106 0.08513891830322172 0  0.4582183089687113 0.05889916916817712 0  0.4771650921173667 0.0345682490428623 0  0.4786311469264966 0.07193451402067624 0  0.3871533862426517 0.1622083790690482 0  0.4004709881341373 0.156587601801244 0  0.383930166391577 0.149077512173999 0  0.464700493006123 0.1337957577261608 0  0.5869673343216626 0 0  0.5932743238853959 0.04945528001359441 0  0.5584639495217296 0.03508113340585634 0  0.5081447438790341 0.05715290841304708 0  0.4614662289214904 0.1185262515411474 0  0.505337249077668 0.1024328896935337 0  0.431963199665431 0.1622083790702696 0  0.4308549333301598 0.1502035540486048 0  0.4116738586544235 0.1041859387663523 0  0.4900906149793102 0.1565876018036352 0  0.4767730130879849 0.1622083790703084 0  0.5443827500055026 0.09366669778791233 0  0.3871533862426518 0.1004535961197204 0  0.4048211958526272 0.1196730942586016 0  0.387533158164613 0.1229770158841918 0  0.5390824052225628 0.06744833187951048 0  0.5212239823753633 0.08492404393226735 0  0.5215828265105156 0.1622083790703317 0  0.5349004284018322 0.1565876018036672 0  0.4433053055141081 0 0  0.4410855102972552 0.03751680874040594 0  0.3969581968524311 0.1447077887708589 0  0.5666194772443838 0.07265723178580256 0  0.4767730130879849 0.1004582016456482 0  0.4895008759286886 0 0  0.4095582929540822 0.1690366057399949 0  0.3975186920292402 0.1660535232065472 0  0.4096953638692593 0.1593611747926069 0  0.4020899907169248 0.1826726487248222 0  0.4215978938789503 0.1660535232066034 0  0.4777970859082697 0.1375242924454789 0  0.4423561517299195 0.1449296933988149 0  0.3871183818181629 0.1813492091082587 0  0.3946170212231889 0.1837683952945248 0  0.442117717086971 0.1672874945454806 0  0.477253129614999 0.1229170029909243 0  0.4990943684003321 0.08379643703559929 0  0.4143465137990051 0.05322961011747924 0  0.4666592720111949 0.1673206601298049 0  0.4870209690086496 0.1445552225959656 0  0.5373680609405097 0 0  0.5691769360607744 0.103623921999164 0  0.3946216884797873 0.1755365127550408 0  0.4200158654557485 0.1549967047228304 0  0.5312943323845036 0.1447479119997123 0  0.4095582929540587 0.1783322890925096 0  0.402719283013572 0.174362078603009 0  0.4163973028945601 0.1743620786030245 0  0.3870163828938027 0.1711802904735331 0  0.5312379346123596 0.03921294785544463 0  0.5656709189996393 0.1218263852353965 0  0.3881774741414789 0.1375237980955535 0  0.4007921484923099 0.1334520017217418 0  0.4244948974283196 0.1755365127551117 0  0.4170265951911974 0.1826726487248186 0  0.4094216635085727 0.1459162970206419 0  0.4171240435965357 0.130709948522703 0  0.4476321386943704 0.1742462878721009 0  0.4319720988215174 0.1712601408791398 0  0.4095582929540592 0.1849109489303113 0  0.4132924440726327 0.19 0  0.510662702819522 0.02256181955995177 0  0.4214619365707062 0.1433505759463181 0  0.4908029823839455 0.1335072113564198 0  0.4767269250530047 0.1713973971258736 0  0.4315229872852132 0.1375769537565516 0  0.5448392573395288 0.1456266733529302 0  0.5536582001352554 0.1343709232030346 0  0.4191531770983273 0.1155832460350826 0  </DataArray>
</Points>
<Cells>
<DataArray  type="UInt32"  Name="connectivity"  format="ascii">0 1 2  0 3 2  4 5 1  6 3 2  5 1 2  5 6 2  7 8 9  10 11 12  13 14 15  16 17 15  18 9 19  20 21 22  23 13 15  10 24 12  25 26 27  20 28 22  29 30 31  32 33 34  10 11 17  18 19 35  36 37 38  39 30 31  40 25 27  16 15 41  42 8 43  18 8 9  20 21 44  10 45 24  46 45 19  23 13 47  48 49 44  48 21 44  48 49 50  39 51 52  53 54 12  55 56 30  33 34 57  51 38 58  59 40 27  29 56 22  55 60 30  61 62 63  4 5 64  61 65 63  20 28 27  37 38 58  66 19 35  8 43 67  6 68 69  20 26 27  23 15 41  59 16 41  7 8 70  59 40 71  39 72 52  73 56 22  7 9 74  59 16 71  32 33 62  45 19 75  76 36 38  59 72 41  59 28 27  77 47 58  39 72 31  78 64 69  42 79 65  59 28 31  42 8 70  54 12 80  61 81 82  29 56 30  61 81 83  61 82 62  78 68 84  46 9 74  5 6 69  33 62 63  61 83 65  59 72 31  39 51 85  77 13 47  79 65 63  51 38 85  78 64 82  42 79 43  77 13 86  87 50 88  5 64 69  89 90 83  51 47 58  76 38 85  78 62 84  91 92 88  7 93 70  89 65 94  46 9 19  4 64 95  78 68 69  96 90 95  29 28 22  60 76 97  76 85 97  53 24 12  91 33 63  91 79 63  18 25 35  42 70 94  32 62 84  91 79 98  66 71 35  29 28 31  66 71 99  73 21 22  46 74 100  42 65 94  10 17 99  101 25 26  23 41 52  49 50 88  78 82 62  101 92 26  89 83 65  18 25 67  81 64 82  81 90 83  91 33 57  79 43 98  96 4 95  102 14 103  91 92 98  81 64 95  101 25 67  81 90 95  49 92 88  18 8 67  40 71 35  87 34 57  23 47 52  11 14 15  72 41 52  11 17 15  16 71 99  101 92 98  102 14 80  10 45 75  40 25 35  39 30 97  11 14 80  101 43 67  16 17 99  102 54 80  66 19 75  91 88 57  51 47 52  87 88 57  13 14 103  39 85 97  11 12 80  49 44 104  13 86 103  49 92 104  10 99 75  20 44 104  60 30 97  92 26 104  66 99 75  20 26 104  101 43 98  </DataArray>
<DataArray  type="UInt32"  Name="offsets"  format="ascii">3 6 9 12 15 18 21 24 27 30 33 36 39 42 45 48 51 54 57 60 63 66 69 72 75 78 81 84 87 90 93 96 99 102 105 108 111 114 117 120 123 126 129 132 135 138 141 144 147 150 153 156 159 162 165 168 171 174 177 180 183 186 189 192 195 198 201 204 207 210 213 216 219 222 225 228 231 234 237 240 243 246 249 252 255 258 261 264 267 270 273 276 279 282 285 288 291 294 297 300 303 306 309 312 315 318 321 324 327 330 333 336 339 342 345 348 351 354 357 360 363 366 369 372 375 378 381 384 387 390 393 396 399 402 405 408 411 414 417 420 423 426 429 432 435 438 441 444 447 450 453 456 459 462 465 468 471 474 477 480 483 486 489 492 495 498 501 504 507 </DataArray>
<DataArray  type="UInt8"  Name="types"  format="ascii">5 5 5 5 5 5 5 5 5 5 5 5 5 5 5 5 5 5 5 5 5 5 5 5 5 5 5 5 5 5 5 5 5 5 5 5 5 5 5 5 5 5 5 5 5 5 5 5 5 5 5 5 5 5 5 5 5 5 5 5 5 5 5 5 5 5 5 5 5 5 5 5 5 5 5 5 5 5 5 5 5 5 5 5 5 5 5 5 5 5 5 5 5 5 5 5 5 5 5 5 5 5 5 5 5 5 5 5 5 5 5 5 5 5 5 5 5 5 5 5 5 5 5 5 5 5 5 5 5 5 5 5 5 5 5 5 5 5 5 5 5 5 5 5 5 5 5 5 5 5 5 5 5 5 5 5 5 5 5 5 5 5 5 5 5 5 5 5 5 </DataArray>
</Cells>
<PointData  Vectors="f_43-1"> 
<DataArray  type="Float64"  Name="f_43-1"  NumberOfComponents="3" format="ascii">-4.5502849948944185e-05 4.4293461626487325e-04 0.0000000000000000e+00  -2.6927312130602596e-05 4.8037539019393181e-04 0.0000000000000000e+00  -1.6984346398680900e-05 4.4262537293510748e-04 0.0000000000000000e+00  -2.3569044327502532e-05 4.0503074736178754e-04 0.0000000000000000e+00  2.7567002998654472e-06 4.9986549540343773e-04 0.0000000000000000e+00  4.0435948592799569e-06 4.6154068772506210e-04 0.0000000000000000e+00  5.1978269645647995e-06 4.2362153388894022e-04 0.0000000000000000e+00  -6.4528651691389615e-06 6.4590771364595638e-04 0.0000000000000000e+00  -4.7797101091817575e-06 5.6413369249565845e-04 0.0000000000000000e+00  -7.2529548466291216e-06 6.2939346259510470e-04 0.0000000000000000e+00  -1.0828024051592598e-05 6.8536851787179818e-04 0.0000000000000000e+00  -1.1758022675104756e-05 6.8399831436952759e-04 0.0000000000000000e+00  -1.2991062156887657e-05 7.6239300820308122e-04 0.0000000000000000e+00  -1.1400622659022440e-05 5.8746766800821715e-04 0.0000000000000000e+00  -1.2428832227344005e-05 6.7603443915394417e-04 0.0000000000000000e+00  -1.0069182195900954e-05 5.8347978301278626e-04 0.0000000000000000e+00  -8.0144354508308634e-06 5.2804773138853363e-04 0.0000000000000000e+00  -9.9468565049259393e-06 6.1664898178687806e-04 0.0000000000000000e+00  -5.6841445044135765e-06 5.5202127984718620e-04 0.0000000000000000e+00  -8.0765604338917078e-06 6.2628561251322685e-04 0.0000000000000000e+00  -2.3465955212949431e-06 3.2024556231201448e-04 0.0000000000000000e+00  -1.1610913266341980e-06 2.3286773227172982e-04 0.0000000000000000e+00  -1.9017738308468071e-06 2.2321260359263001e-04 0.0000000000000000e+00  -8.9348522549083586e-06 5.0028141133572220e-04 0.0000000000000000e+00  -1.2666988202733017e-05 7.7401804115783453e-04 0.0000000000000000e+00  -4.3110123832651641e-06 4.6440402568368323e-04 0.0000000000000000e+00  -2.7367452828466828e-06 3.9125073696491774e-04 0.0000000000000000e+00  -3.7341908183918126e-06 3.7050791200859111e-04 0.0000000000000000e+00  -3.3116888058956276e-06 3.0621990300638710e-04 0.0000000000000000e+00  -2.4718485731857032e-06 2.1330875810739449e-04 0.0000000000000000e+00  -1.8376413090005616e-06 1.3392836638955656e-04 0.0000000000000000e+00  -3.9199796192984949e-06 2.8604578004002825e-04 0.0000000000000000e+00  2.7455981801053702e-06 3.5805003286795917e-04 0.0000000000000000e+00  1.0073692294762245e-06 3.9656007956647457e-04 0.0000000000000000e+00  2.0816889553735159e-06 3.2252405653943056e-04 0.0000000000000000e+00  -6.2086694165273843e-06 5.2884161870152041e-04 0.0000000000000000e+00  0.0000000000000000e+00 0.0000000000000000e+00 0.0000000000000000e+00  -5.2550147396476802e-06 2.1650870290979623e-04 0.0000000000000000e+00  -3.3143610576921814e-06 1.5752789176959333e-04 0.0000000000000000e+00  -4.0807082291727615e-06 2.4618526704659952e-04 0.0000000000000000e+00  -5.1869205972626229e-06 4.5419560092518609e-04 0.0000000000000000e+00  -7.4182727689328900e-06 4.5972669451045260e-04 0.0000000000000000e+00  -2.8776295400349772e-06 5.3444830842503234e-04 0.0000000000000000e+00  -2.7620924893594028e-06 4.8822470907031640e-04 0.0000000000000000e+00  -1.1855113188183203e-06 2.9161189874132181e-04 0.0000000000000000e+00  -1.0668345515403391e-05 7.1896141034920964e-04 0.0000000000000000e+00  -9.4616815405754470e-06 7.0455029065867483e-04 0.0000000000000000e+00  -8.7349788396363151e-06 4.4707940168490351e-04 0.0000000000000000e+00  6.8162634015706567e-08 2.3176986635136391e-04 0.0000000000000000e+00  -6.0279326254701926e-07 3.1777105098355543e-04 0.0000000000000000e+00  6.0450975518966393e-07 2.8139033613811757e-04 0.0000000000000000e+00  -5.9482939713593483e-06 3.0909267890219863e-04 0.0000000000000000e+00  -6.8189249309479760e-06 3.8721343941646547e-04 0.0000000000000000e+00  -1.4613736496977753e-05 8.4918326527251792e-04 0.0000000000000000e+00  -1.5084788594422908e-05 8.4188319090501345e-04 0.0000000000000000e+00  0.0000000000000000e+00 0.0000000000000000e+00 0.0000000000000000e+00  -1.2120690499155518e-06 1.2408511914667935e-04 0.0000000000000000e+00  7.6011321679499729e-07 3.5666563418716176e-04 0.0000000000000000e+00  -7.3145541329318865e-06 3.3719194470882449e-04 0.0000000000000000e+00  -5.4243554352167705e-06 4.0634972066774013e-04 0.0000000000000000e+00  0.0000000000000000e+00 0.0000000000000000e+00 0.0000000000000000e+00  5.7576996368232056e-07 4.6383549810707643e-04 0.0000000000000000e+00  1.9369457394262452e-06 4.0665282242805851e-04 0.0000000000000000e+00  7.9045870251939478e-08 4.3846883764448656e-04 0.0000000000000000e+00  2.6808303560942708e-06 4.6403664064352583e-04 0.0000000000000000e+00  -1.2870645351374336e-06 5.0548806425251586e-04 0.0000000000000000e+00  -7.7811631668380431e-06 5.8209116735181933e-04 0.0000000000000000e+00  -4.1153037312494337e-06 5.0796851367675697e-04 0.0000000000000000e+00  4.6178230170745245e-06 3.9103291124857435e-04 0.0000000000000000e+00  3.9070973377835116e-06 4.3056504378965891e-04 0.0000000000000000e+00  -4.4664534984941158e-06 5.9441887349818479e-04 0.0000000000000000e+00  -6.7904666150196073e-06 5.1015782861623012e-04 0.0000000000000000e+00  -5.6491502796414866e-06 3.6105930620205172e-04 0.0000000000000000e+00  -9.2282643222558090e-07 1.5106385015104608e-04 0.0000000000000000e+00  -8.3698725045971484e-06 6.9280006381112547e-04 0.0000000000000000e+00  -9.2740778911061572e-06 6.4365460423630651e-04 0.0000000000000000e+00  0.0000000000000000e+00 0.0000000000000000e+00 0.0000000000000000e+00  -1.0983453738134819e-05 5.0552478013706219e-04 0.0000000000000000e+00  3.0719429037621413e-06 4.1432410065952389e-04 0.0000000000000000e+00  -1.3504501822763029e-06 4.6484451244880286e-04 0.0000000000000000e+00  -1.3410070781037072e-05 7.5005206737323738e-04 0.0000000000000000e+00  1.1512343241067125e-06 4.8849306516618527e-04 0.0000000000000000e+00  1.8864426847492092e-06 4.4761156739892412e-04 0.0000000000000000e+00  -1.7373609467125512e-07 5.0849703271029238e-04 0.0000000000000000e+00  3.5474978681331220e-06 3.7347612494796959e-04 0.0000000000000000e+00  -3.2436554445137332e-06 1.7385782950277907e-04 0.0000000000000000e+00  -1.3082243694988887e-05 6.2042347060900711e-04 0.0000000000000000e+00  1.1334079635162937e-06 3.1352136557842082e-04 0.0000000000000000e+00  1.5129966108327222e-08 3.4178537500699886e-04 0.0000000000000000e+00  -1.4705587926954955e-06 5.4850627800296368e-04 0.0000000000000000e+00  1.5334410565850944e-07 5.3597580676840377e-04 0.0000000000000000e+00  -3.8833344860095103e-07 4.0114997548521751e-04 0.0000000000000000e+00  -1.4307339718854139e-06 3.8187766892047704e-04 0.0000000000000000e+00  -5.5478485359495850e-06 6.4626627929273211e-04 0.0000000000000000e+00  -2.8172962135845368e-06 5.6677650875522204e-04 0.0000000000000000e+00  1.6379544927300987e-06 5.0580752173009027e-04 0.0000000000000000e+00  1.3503539071728979e-06 5.3842317471459859e-04 0.0000000000000000e+00  -1.6186564306243321e-06 9.5871923059409213e-05 0.0000000000000000e+00  -1.7171066915566470e-06 4.3374988870260780e-04 0.0000000000000000e+00  -8.7671873489016386e-06 5.9474490367778226e-04 0.0000000000000000e+00  -1.0233128355750174e-05 7.5309797209728243e-04 0.0000000000000000e+00  -2.8123874354103453e-06 4.4679214377243694e-04 0.0000000000000000e+00  -1.4568418088350568e-05 7.7786911337290182e-04 0.0000000000000000e+00  -1.3867047225050294e-05 7.0450848930633640e-04 0.0000000000000000e+00  -1.6720134553092977e-06 3.4188593568667224e-04 0.0000000000000000e+00  </DataArray> 
</PointData> 
</Piece>
</UnstructuredGrid>
</VTKFile>