<?xml version="1.0"?>
<VTKFile type="UnstructuredGrid"  version="0.1"  >
<UnstructuredGrid>
<Piece  NumberOfPoints="102" NumberOfCells="171">
<Points>
<DataArray  type="Float64"  NumberOfComponents="3"  format="ascii">0.476773013087985 0.1999999999998713 0  0.4693047108508938 0.1970915826863783 0  0.4693047108503577 0.2040749161535231 0  0.4917096175621762 0.1999999999998808 0  0.4842413153250809 0.1970915826863873 0  0.4842413153245942 0.2040749161535287 0  0.5066462220363641 0.199999999999908 0  0.4991779197992749 0.1970915826863902 0  0.4991779197988497 0.2040749161535382 0  0.5215828265105155 0.1999999999999228 0  0.5141145242734466 0.1970915826863843 0  0.5141145242731028 0.2040749161535395 0  0.5365194309847112 0.1999999999999436 0  0.5290511287476175 0.1970915826863981 0  0.5290511287473298 0.2040749161535501 0  0.5327852798661811 0.19 0  0.5253169776290537 0.19 0  0.5178486753919799 0.19 0  0.5103803731549078 0.19 0  0.4879754664436223 0.19 0  0.4805071642065402 0.19 0  0.502912070917822 0.19 0  0.4954437686807294 0.19 0  0.4767730130872753 0.2056971942287455 0  0.4917096175615203 0.2056971942287492 0  0.5066462220358396 0.2056971942287649 0  0.5215828265100828 0.2056971942287677 0  0.5365194309843644 0.2056971942287865 0  0.5439623148931173 0.2040856076781014 0  0.5365194309847112 0.1943028057711659 0  0.5215828265105155 0.1943028057711514 0  0.4767730130879849 0.1943028057711153 0  0.4917096175621761 0.1943028057711214 0  0.5066462220363641 0.1943028057711422 0  0.480507164205851 0.21 0  0.4879754664429498 0.21 0  0.5103803731544119 0.21 0  0.5178486753915261 0.21 0  0.5402535821029386 0.21 0  0.54772188434007 0.21 0  0.4954437686800938 0.21 0  0.502912070917267 0.21 0  0.5253169776286404 0.21 0  0.5327852798657868 0.21 0  0.4730388619686996 0.21 0  0.4991779197992711 0.167693385507626 0  0.4900906149793102 0.1565876018036352 0  0.5082652246192162 0.1565876018036352 0  0.499237761463083 0.2192785032300353 0  0.4993542269391089 0.2308107468212473 0  0.5064903940750056 0.2246838314870058 0  0.5123638022628456 0.2310955071885417 0  0.536567636007916 0.2275987754591341 0  0.5347760817351684 0.2414500964404198 0  0.5283542774025207 0.2302880001042248 0  0.5455709551586724 0.2324144452751203 0  0.546982877175164 0.2233942294772845 0  0.5365194309843644 0.2180863504285254 0  0.5444469726554123 0.2157339702670886 0  0.5588244563271773 0.225349035787779 0  0.5519051872593019 0.2166420053265535 0  0.5216178319364539 0.1813492122870838 0  0.5265047000024197 0.2223941974774756 0  0.5286910337265995 0.2154702409242758 0  0.5150278681324471 0.2228450308306156 0  0.5214285426002536 0.2161011329323836 0  0.4767730130872752 0.2184019876485795 0  0.5209814004512184 0.2362962593649592 0  0.5084573036363184 0.2395108277223441 0  0.553378981997341 0.2322691570724318 0  0.5504647692515866 0.2417078359721865 0  0.4910031975930484 0.2171006717137592 0  0.5075668509025225 0.2171084086245455 0  0.5143590539697885 0.2155988592715468 0  0.4917096175621761 0.1826726487251064 0  0.5066462220363641 0.1826726487251085 0  0.5208355992062484 0.2285465546466679 0  0.4767380076620556 0.1813492122870721 0  0.4842366479349569 0.1837683957184343 0  0.5141191916635692 0.1837683957184422 0  0.4867628426197099 0.1672556638427207 0  0.5290511287476175 0.1834818376483974 0  0.5115929969788211 0.1672556638427288 0  0.4841984187204001 0.2159109988582109 0  0.5294745265341012 0.1761054820336709 0  0.5366299525895074 0.1825690825227473 0  0.4842413153250809 0.1755365127551258 0  0.4923756029794709 0.2245693836696246 0  0.4869999746943883 0.2308048359320609 0  0.5141145242734466 0.1755365127551412 0  0.4846260107628763 0.2228898464509046 0  0.4767730130879849 0.1622083790703084 0  0.5215828265105156 0.1622083790703317 0  0.4991779197992725 0.1783172034453956 0  0.4923389098589435 0.1741809711526818 0  0.4767269250530047 0.1713973971258736 0  0.506016929739597 0.1741809711526895 0  0.5349004284018322 0.1565876018036672 0  0.5316967135713353 0.1673421178078786 0  0.5216289307659581 0.1713997813123399 0  0.4991779197992735 0.1849089375109228 0  0.5631143150331265 0.2366473934541688 0  </DataArray>
</Points>
<Cells>
<DataArray  type="UInt32"  Name="connectivity"  format="ascii">0 1 2  3 4 5  6 7 8  9 10 11  12 13 14  9 13 14  6 10 11  3 7 8  0 4 5  15 16 13  17 18 10  19 20 4  21 22 7  0 2 23  3 5 24  6 8 25  9 11 26  12 14 27  12 28 27  9 14 26  6 11 25  3 8 24  0 5 23  15 13 29  16 13 30  9 13 30  12 13 29  0 4 31  20 4 31  0 1 31  19 4 32  18 10 33  21 7 33  22 7 32  17 10 30  6 7 33  6 10 33  3 4 32  3 7 32  9 10 30  34 35 5  36 37 11  38 39 28  40 41 8  42 43 14  34 5 23  44 2 23  35 5 24  40 8 24  36 11 25  41 8 25  42 14 26  43 14 27  38 28 27  37 11 26  44 34 23  35 40 24  41 36 25  43 38 27  37 42 26  22 19 32  18 21 33  16 17 30  45 46 47  40 41 48  49 50 51  52 53 54  52 53 55  56 57 58  59 56 60  52 56 57  16 17 61  52 62 57  62 57 63  64 62 65  44 34 66  67 53 54  43 38 57  49 68 51  59 56 69  70 53 55  40 48 71  41 48 72  52 56 55  64 73 65  22 19 74  18 21 75  64 62 76  20 77 78  17 61 79  45 46 80  16 61 81  56 55 69  45 47 82  34 66 83  35 40 71  41 36 72  84 85 81  52 62 54  86 74 78  49 87 88  67 68 51  89 75 79  38 57 58  43 57 63  90 71 83  64 72 73  91 46 80  19 20 78  17 18 79  15 16 81  34 35 83  92 47 82  36 37 73  45 93 94  86 77 95  45 93 96  92 97 98  45 94 80  19 74 78  84 61 99  18 75 79  45 96 82  89 61 99  90 71 87  37 42 65  15 85 81  64 72 50  86 74 94  89 75 96  38 39 58  35 71 83  36 72 73  22 74 100  21 75 100  42 43 63  84 61 81  86 80 95  84 98 99  86 77 78  89 61 79  89 82 99  49 48 87  49 48 50  90 66 83  37 73 65  48 71 87  48 72 50  39 60 58  42 65 63  92 98 99  91 80 95  59 101 69  21 22 100  92 82 99  64 50 51  86 94 80  93 74 94  93 75 96  89 96 82  70 101 69  93 74 100  93 75 100  56 60 58  62 65 63  90 87 88  62 54 76  64 76 51  70 55 69  67 76 51  67 54 76  </DataArray>
<DataArray  type="UInt32"  Name="offsets"  format="ascii">3 6 9 12 15 18 21 24 27 30 33 36 39 42 45 48 51 54 57 60 63 66 69 72 75 78 81 84 87 90 93 96 99 102 105 108 111 114 117 120 123 126 129 132 135 138 141 144 147 150 153 156 159 162 165 168 171 174 177 180 183 186 189 192 195 198 201 204 207 210 213 216 219 222 225 228 231 234 237 240 243 246 249 252 255 258 261 264 267 270 273 276 279 282 285 288 291 294 297 300 303 306 309 312 315 318 321 324 327 330 333 336 339 342 345 348 351 354 357 360 363 366 369 372 375 378 381 384 387 390 393 396 399 402 405 408 411 414 417 420 423 426 429 432 435 438 441 444 447 450 453 456 459 462 465 468 471 474 477 480 483 486 489 492 495 498 501 504 507 510 513 </DataArray>
<DataArray  type="UInt8"  Name="types"  format="ascii">5 5 5 5 5 5 5 5 5 5 5 5 5 5 5 5 5 5 5 5 5 5 5 5 5 5 5 5 5 5 5 5 5 5 5 5 5 5 5 5 5 5 5 5 5 5 5 5 5 5 5 5 5 5 5 5 5 5 5 5 5 5 5 5 5 5 5 5 5 5 5 5 5 5 5 5 5 5 5 5 5 5 5 5 5 5 5 5 5 5 5 5 5 5 5 5 5 5 5 5 5 5 5 5 5 5 5 5 5 5 5 5 5 5 5 5 5 5 5 5 5 5 5 5 5 5 5 5 5 5 5 5 5 5 5 5 5 5 5 5 5 5 5 5 5 5 5 5 5 5 5 5 5 5 5 5 5 5 5 5 5 5 5 5 5 5 5 5 5 5 5 </DataArray>
</Cells>
<PointData  Vectors="f_43-1"> 
<DataArray  type="Float64"  Name="f_43-1"  NumberOfComponents="3" format="ascii">1.3143525773362122e-05 -1.4630979657673644e-04 0.0000000000000000e+00  1.0457006015039105e-05 -1.3820240453554149e-04 0.0000000000000000e+00  1.7279834366301048e-05 -1.4005300386139667e-04 0.0000000000000000e+00  1.2706995021179766e-05 -1.6112519104236097e-04 0.0000000000000000e+00  1.0077829734944266e-05 -1.5296237294921630e-04 0.0000000000000000e+00  1.6992501961916717e-05 -1.5473442197241484e-04 0.0000000000000000e+00  1.2078656100966732e-05 -1.7607814756535081e-04 0.0000000000000000e+00  9.5172639461698121e-06 -1.6788418809004767e-04 0.0000000000000000e+00  1.6499789670611415e-05 -1.6957749699646990e-04 0.0000000000000000e+00  1.1257215178862918e-05 -1.9112826853874711e-04 0.0000000000000000e+00  8.7723554326311693e-06 -1.8292251907473249e-04 0.0000000000000000e+00  1.5803528543269828e-05 -1.8453663418971733e-04 0.0000000000000000e+00  1.0240381000516767e-05 -2.0624457012408093e-04 0.0000000000000000e+00  7.8395275495189457e-06 -1.9804192210516616e-04 0.0000000000000000e+00  1.4904595061989338e-05 -1.9957590843904462e-04 0.0000000000000000e+00  4.6440011106236580e-07 -2.0030195262247949e-04 0.0000000000000000e+00  9.9181909459228693e-07 -1.9268769520496638e-04 0.0000000000000000e+00  1.4743610634055841e-06 -1.8508884769817590e-04 0.0000000000000000e+00  1.9133126565531148e-06 -1.7750910644119598e-04 0.0000000000000000e+00  2.9778376790779445e-06 -1.5492347094268367e-04 0.0000000000000000e+00  3.2519970598484424e-06 -1.4746318416742401e-04 0.0000000000000000e+00  2.3094709776290852e-06 -1.6995177225401115e-04 0.0000000000000000e+00  2.6640705498189981e-06 -1.6242176160325385e-04 0.0000000000000000e+00  1.8768880247202484e-05 -1.4779514151155591e-04 0.0000000000000000e+00  1.8396880524745675e-05 -1.6254442614033930e-04 0.0000000000000000e+00  1.7815542698003464e-05 -1.7743141149226323e-04 0.0000000000000000e+00  1.7027371739500125e-05 -1.9241537801986704e-04 0.0000000000000000e+00  1.6033519370232338e-05 -2.0746484423023024e-04 0.0000000000000000e+00  1.3815279239544530e-05 -2.1464489026371832e-04 0.0000000000000000e+00  4.4941906501457505e-06 -2.0502911778823884e-04 0.0000000000000000e+00  5.5333954553023818e-06 -1.8984826450427333e-04 0.0000000000000000e+00  7.5637366316791083e-06 -1.4484361720525419e-04 0.0000000000000000e+00  7.0628146638464018e-06 -1.5972013297211083e-04 0.0000000000000000e+00  6.3877169762455112e-06 -1.7473506248347748e-04 0.0000000000000000e+00  2.2992874127463338e-05 -1.5258803664561522e-04 0.0000000000000000e+00  2.2830698597828965e-05 -1.5993691157528944e-04 0.0000000000000000e+00  2.2011257759667482e-05 -1.8218550421380967e-04 0.0000000000000000e+00  2.1629425539689494e-05 -1.8965200130602000e-04 0.0000000000000000e+00  2.0164351152494132e-05 -2.1214642995069592e-04 0.0000000000000000e+00  1.9570128247293428e-05 -2.1966638374452274e-04 0.0000000000000000e+00  2.2612591014824303e-05 -1.6732314365715343e-04 0.0000000000000000e+00  2.2339240196918603e-05 -1.7474098007779705e-04 0.0000000000000000e+00  2.1194080822612458e-05 -1.9713653332083554e-04 0.0000000000000000e+00  2.0705681047618748e-05 -2.0463568871259533e-04 0.0000000000000000e+00  2.3098295349988066e-05 -1.4528305720698422e-04 0.0000000000000000e+00  1.8147856673849800e-06 -1.4282540800195464e-04 0.0000000000000000e+00  1.8372481627341283e-06 -1.2509847823721320e-04 0.0000000000000000e+00  1.2831624490957826e-06 -1.3757708307664807e-04 0.0000000000000000e+00  2.0866840442533875e-05 -1.6134736463163603e-04 0.0000000000000000e+00  1.8977043188946317e-05 -1.4940444252997329e-04 0.0000000000000000e+00  1.9700869769739807e-05 -1.6181862770889893e-04 0.0000000000000000e+00  1.8440456318206965e-05 -1.5922657376397293e-04 0.0000000000000000e+00  1.7641379282096354e-05 -1.8209877969970186e-04 0.0000000000000000e+00  1.5767808880322349e-05 -1.6125675942373088e-04 0.0000000000000000e+00  1.7750768091321128e-05 -1.7226704207267803e-04 0.0000000000000000e+00  1.6306483696530077e-05 -1.8090322394090236e-04 0.0000000000000000e+00  1.7516755148663757e-05 -1.9642319425077067e-04 0.0000000000000000e+00  1.9117278024887563e-05 -1.9619666801285181e-04 0.0000000000000000e+00  1.8904817258812447e-05 -2.0694391075289260e-04 0.0000000000000000e+00  1.6225957255550534e-05 -2.0126949418587092e-04 0.0000000000000000e+00  1.8149897073494730e-05 -2.1199368579638615e-04 0.0000000000000000e+00  1.0706864383896190e-06 -1.7764785354565325e-04 0.0000000000000000e+00  1.9077875376404173e-05 -1.8147238398533475e-04 0.0000000000000000e+00  2.0063423189181862e-05 -1.9289681874008272e-04 0.0000000000000000e+00  1.9621829757653199e-05 -1.7118661012028208e-04 0.0000000000000000e+00  2.0393303476827462e-05 -1.8531821424230832e-04 0.0000000000000000e+00  2.1554415474064506e-05 -1.4185712727686009e-04 0.0000000000000000e+00  1.7254947238145168e-05 -1.5924964295547953e-04 0.0000000000000000e+00  1.7327719660865845e-05 -1.4681994710767949e-04 0.0000000000000000e+00  1.5719256127511672e-05 -1.8573304126465504e-04 0.0000000000000000e+00  1.4684404140690987e-05 -1.6894809506551366e-04 0.0000000000000000e+00  2.1493702307089782e-05 -1.5603960176022367e-04 0.0000000000000000e+00  2.0911740355752199e-05 -1.7129803032908580e-04 0.0000000000000000e+00  2.0852409853301481e-05 -1.7936949788629455e-04 0.0000000000000000e+00  2.5435225546920900e-06 -1.5150506148046139e-04 0.0000000000000000e+00  1.8908831107122949e-06 -1.6545170986168327e-04 0.0000000000000000e+00  1.8429892079505971e-05 -1.6885885325781426e-04 0.0000000000000000e+00  3.0012448723432481e-06 -1.3644532568688039e-04 0.0000000000000000e+00  2.8596674360769923e-06 -1.4552946784764044e-04 0.0000000000000000e+00  1.5361995667883782e-06 -1.7374025898360656e-04 0.0000000000000000e+00  2.2124072658293479e-06 -1.3256711628986917e-04 0.0000000000000000e+00  6.5139913557764847e-07 -1.8734897553959780e-04 0.0000000000000000e+00  1.3268648255647386e-06 -1.5199260832708065e-04 0.0000000000000000e+00  2.1864024943253696e-05 -1.5085346153811280e-04 0.0000000000000000e+00  5.6780593928896575e-07 -1.7742762438449243e-04 0.0000000000000000e+00  1.5001524274270852e-07 -1.9297338978971451e-04 0.0000000000000000e+00  2.5542434709492266e-06 -1.3806026513072254e-04 0.0000000000000000e+00  2.0192660699566318e-05 -1.4997322463070772e-04 0.0000000000000000e+00  1.9306430224854112e-05 -1.3959216824465444e-04 0.0000000000000000e+00  1.3612446858753541e-06 -1.6379739906820568e-04 0.0000000000000000e+00  2.0655653923067000e-05 -1.4489070703707627e-04 0.0000000000000000e+00  2.3293334884319358e-06 -1.2037662420159505e-04 0.0000000000000000e+00  8.5386236884487414e-07 -1.5317271525292289e-04 0.0000000000000000e+00  2.0995113883021817e-06 -1.5390869938229995e-04 0.0000000000000000e+00  2.2374174182820715e-06 -1.4375312303717199e-04 0.0000000000000000e+00  2.6281865977625254e-06 -1.2805795446709263e-04 0.0000000000000000e+00  1.7003764775857069e-06 -1.5537347582608599e-04 0.0000000000000000e+00  3.1269879436689238e-07 -1.5416721544398606e-04 0.0000000000000000e+00  4.2751549503096294e-07 -1.6695545222863422e-04 0.0000000000000000e+00  9.3679953184450791e-07 -1.6482345708873774e-04 0.0000000000000000e+00  2.3094877832403002e-06 -1.6083015795819979e-04 0.0000000000000000e+00  1.4293690966216303e-05 -1.8257025764805850e-04 0.0000000000000000e+00  </DataArray> 
</PointData> 
</Piece>
</UnstructuredGrid>
</VTKFile>