<?xml version="1.0"?>
<VTKFile type="UnstructuredGrid"  version="0.1"  >
<UnstructuredGrid>
<Piece  NumberOfPoints="103" NumberOfCells="166">
<Points>
<DataArray  type="Float64"  NumberOfComponents="3"  format="ascii">0.4655705597315852 0.21 0  0.4730388619686996 0.21 0  0.4693047108503577 0.2040749161535231 0  0.4618364086130068 0.2056971942287359 0  0.4581022574944306 0.21 0  0.5022733717445609 0.2484520140959261 0  0.5039200503329727 0.2634569969024956 0  0.4870587955368383 0.2511092200731516 0  0.4619845553363554 0.2471559623297018 0  0.4744155700740079 0.2566595549135983 0  0.4718174066442032 0.2448602332187449 0  0.5209814004512184 0.2362962593649592 0  0.5347760817351684 0.2414500964404198 0  0.5183393333239584 0.2464065549333135 0  0.5166834276845828 0.2571581640138182 0  0.4421897352483806 0.3061937447056332 0  0.418091171977014 0.3243162836372635 0  0.412607471649106 0.2990503898016255 0  0.4787056372270673 0.2371901345199761 0  0.4898985359610427 0.2395108277223441 0  0.4302139512950107 0.2879708289588951 0  0.5380469068795991 0.270190988877121 0  0.5593867837568711 0.2625481287604455 0  0.5487739828661812 0.2837987172973246 0  0.4852224147682477 0.2693506158480865 0  0.537795959080102 0.3217164911732622 0  0.5084674509460629 0.3444400826937225 0  0.512571303534115 0.315294881441146 0  0.4679743527986476 0.2938700081288894 0  0.4504932786869968 0.2799586344600427 0  0.4333214399877798 0.2707568063501644 0  0.4117097904773068 0.2792362674983541 0  0.4219952157594144 0.2615029378934271 0  0.3938502830802056 0.3095497484347601 0  0.3641563190507836 0.3179653487982807 0  0.3934922780344484 0.3350540779420794 0  0.4687683012296924 0.2234572950360006 0  0.4652183412607249 0.234253800772318 0  0.4767526104577227 0.2273866629412239 0  0.4707920865830447 0.3486070579413962 0  0.4787676469414335 0.3785383868246253 0  0.3754967205959606 0.2925860795314694 0  0.4626056464247933 0.2175583716511612 0  0.4543958902951323 0.217783002687627 0  0.4618276563023947 0.226295708468006 0  0.544963993717515 0.2555062458890662 0  0.4601355054144107 0.2625386919569297 0  0.4713424846317688 0.2745508899070743 0  0.5084573036363184 0.2395108277223441 0  0.5299710643811397 0.2566376774421922 0  0.541625169083316 0.3526746646055688 0  0.4386378054355863 0.2427664002734886 0  0.4420138570927455 0.2303582032589531 0  0.4274409436629797 0.2358490737568498 0  0.4895894057788134 0.3280526958589806 0  0.4537654266604936 0.2283937178128906 0  0.3871536388992142 0.2768042805511501 0  0.398571556794488 0.2667712515333163 0  0.398267784857306 0.2897726550924405 0  0.5173146390988945 0.3796900489573174 0  0.5292128724209423 0.2936972872082567 0  0.5209430201332119 0.2710369260536757 0  0.507058739830649 0.2805607505285516 0  0.4904006859619667 0.3067892894525832 0  0.4892189727163938 0.2873772533228455 0  0.4192410422903348 0.3546402176185522 0  0.4444416418673275 0.3371826323410143 0  0.4460062899873121 0.3720706817615101 0  0.4676405937283705 0.3189200602945363 0  0.4510553949639345 0.2400598894424664 0  0.4244157537195716 0.2482530512201678 0  0.3717783033973493 0.3492929215517201 0  0.5504647692515866 0.2417078359721865 0  0.4105467584982695 0.2658772111092724 0  0.5869673343225223 0.41 0  0.5770529515268702 0.3629450529032476 0  0.5527077665762991 0.3828459005111343 0  0.448875629425473 0.2527683700708778 0  0.4140433986437475 0.2417572010675891 0  0.3766159229561977 0.3830577447225878 0  0.4149595575946646 0.3834673183778856 0  0.3949496524092438 0.3601144457090416 0  0.5683897549737816 0.3290580395153129 0  0.3436434970543172 0.3743236175823911 0  0.4357040734592776 0.2558482019948566 0  0.3826544750917113 0.2574975795502557 0  0.5561563723763112 0.3041501920577169 0  0.5631143150331265 0.2366473934541688 0  0.556227780909367 0.2515606281824664 0  0.4993542269391089 0.2308107468212473 0  0.4869999746943883 0.2308048359320609 0  0.4091898654769304 0.2539103800220315 0  0.5114371803269665 0.2974349400710795 0  0.4693357546089872 0.2160476853278769 0  0.4767730130872752 0.2184019876485795 0  0.4895008759292634 0.41 0  0.4433053055145528 0.41 0  0.5373680609412221 0.41 0  0.4997232129797319 0.2393335372925151 0  0.3987229542475914 0.41 0  0.3556974926297398 0.41 0  0.4846260107628763 0.2228898464509046 0  0.4460825720969575 0.2652057710885948 0  </DataArray>
</Points>
<Cells>
<DataArray  type="UInt32"  Name="connectivity"  format="ascii">0 1 2  0 2 3  4 0 3  5 6 7  8 9 10  11 12 13  5 14 13  15 16 17  18 19 7  15 20 17  21 22 23  24 6 7  25 26 27  15 28 29  30 31 32  33 34 35  36 37 38  18 7 10  39 26 40  33 34 41  42 43 44  21 22 45  15 20 29  30 31 20  46 9 47  46 8 9  5 48 13  12 49 13  25 26 50  51 52 53  39 26 54  5 14 6  55 43 44  56 57 58  26 59 40  24 9 47  21 60 61  62 24 6  31 57 58  18 37 38  4 0 42  63 28 64  65 66 67  56 41 58  63 28 68  55 37 69  51 70 53  71 34 35  33 16 17  30 20 29  15 28 68  62 60 61  72 12 45  55 52 69  31 32 73  74 75 76  46 8 77  39 66 67  70 53 78  21 60 23  79 80 81  33 16 35  62 24 64  25 50 82  65 16 35  15 16 66  71 83 79  9 7 10  51 77 69  65 16 66  51 70 84  56 85 57  33 41 58  60 23 86  24 9 7  72 87 88  14 61 49  8 77 69  89 19 90  91 70 78  8 37 69  63 27 54  4 42 43  62 60 92  15 68 66  39 68 66  0 42 93  1 94 93  28 64 47  91 70 32  46 29 47  24 64 47  25 60 86  95 96 40  51 52 69  26 50 59  96 67 40  51 77 84  21 61 49  39 68 54  31 57 73  18 19 90  97 95 59  26 27 54  89 19 98  18 38 90  0 1 93  89 48 98  75 50 82  70 32 84  99 100 79  65 35 81  31 20 17  18 37 10  25 60 27  14 49 13  101 38 90  100 83 79  74 97 76  65 80 81  77 84 102  99 79 80  25 82 86  14 6 61  62 64 92  30 32 84  46 29 102  30 84 102  30 29 102  96 99 80  36 37 44  12 45 49  11 48 13  95 59 40  28 29 47  71 79 81  63 68 54  63 64 92  36 42 93  36 94 93  72 45 88  50 59 76  55 37 44  8 37 10  46 77 102  39 67 40  5 19 98  5 48 98  62 6 61  36 42 44  36 94 38  101 94 38  63 27 92  60 27 92  5 19 7  75 50 76  91 57 73  65 67 80  31 17 58  21 45 49  22 45 88  97 59 76  71 35 81  33 17 58  96 67 80  91 32 73  </DataArray>
<DataArray  type="UInt32"  Name="offsets"  format="ascii">3 6 9 12 15 18 21 24 27 30 33 36 39 42 45 48 51 54 57 60 63 66 69 72 75 78 81 84 87 90 93 96 99 102 105 108 111 114 117 120 123 126 129 132 135 138 141 144 147 150 153 156 159 162 165 168 171 174 177 180 183 186 189 192 195 198 201 204 207 210 213 216 219 222 225 228 231 234 237 240 243 246 249 252 255 258 261 264 267 270 273 276 279 282 285 288 291 294 297 300 303 306 309 312 315 318 321 324 327 330 333 336 339 342 345 348 351 354 357 360 363 366 369 372 375 378 381 384 387 390 393 396 399 402 405 408 411 414 417 420 423 426 429 432 435 438 441 444 447 450 453 456 459 462 465 468 471 474 477 480 483 486 489 492 495 498 </DataArray>
<DataArray  type="UInt8"  Name="types"  format="ascii">5 5 5 5 5 5 5 5 5 5 5 5 5 5 5 5 5 5 5 5 5 5 5 5 5 5 5 5 5 5 5 5 5 5 5 5 5 5 5 5 5 5 5 5 5 5 5 5 5 5 5 5 5 5 5 5 5 5 5 5 5 5 5 5 5 5 5 5 5 5 5 5 5 5 5 5 5 5 5 5 5 5 5 5 5 5 5 5 5 5 5 5 5 5 5 5 5 5 5 5 5 5 5 5 5 5 5 5 5 5 5 5 5 5 5 5 5 5 5 5 5 5 5 5 5 5 5 5 5 5 5 5 5 5 5 5 5 5 5 5 5 5 5 5 5 5 5 5 5 5 5 5 5 5 5 5 5 5 5 5 5 5 5 5 5 5 </DataArray>
</Cells>
<PointData  Vectors="f_43-1"> 
<DataArray  type="Float64"  Name="f_43-1"  NumberOfComponents="3" format="ascii">-2.6460218631892393e-05 4.1890812805946929e-04 0.0000000000000000e+00  -2.4650322086322534e-05 4.2232918144051456e-04 0.0000000000000000e+00  -2.2743922437621057e-05 4.2293306756697801e-04 0.0000000000000000e+00  -2.4687113364062308e-05 4.1839442625323946e-04 0.0000000000000000e+00  -2.8353718194242604e-05 4.1430268881280895e-04 0.0000000000000000e+00  -1.6689353686499947e-05 3.1271914274668555e-04 0.0000000000000000e+00  -1.5218084529718788e-05 2.7419319077317828e-04 0.0000000000000000e+00  -1.8120781011050648e-05 3.0415295433990904e-04 0.0000000000000000e+00  -2.1853665709879890e-05 3.0566831697060481e-04 0.0000000000000000e+00  -1.8942124290048227e-05 2.8643286702716077e-04 0.0000000000000000e+00  -2.0804501014066435e-05 3.1640355301235139e-04 0.0000000000000000e+00  -1.5685189451952237e-05 3.4415837291890833e-04 0.0000000000000000e+00  -1.4415403696694121e-05 3.2600495778966297e-04 0.0000000000000000e+00  -1.5326841028389511e-05 3.1688458369107689e-04 0.0000000000000000e+00  -1.4696090878789792e-05 2.8906627064861440e-04 0.0000000000000000e+00  -1.4177063668150952e-05 1.6515047850949394e-04 0.0000000000000000e+00  -1.2116111025476797e-05 1.2288473351592091e-04 0.0000000000000000e+00  -1.6639705601659411e-05 1.6094663737769267e-04 0.0000000000000000e+00  -2.0732113356380564e-05 3.4015752095275359e-04 0.0000000000000000e+00  -1.8913099310520002e-05 3.3618891324629089e-04 0.0000000000000000e+00  -1.7886962911984643e-05 1.9299111333633521e-04 0.0000000000000000e+00  -1.2313024618187753e-05 2.5198239416341804e-04 0.0000000000000000e+00  -1.1878895983909276e-05 2.6002472221520412e-04 0.0000000000000000e+00  -1.0725357059915387e-05 2.1737110859195097e-04 0.0000000000000000e+00  -1.6275699572107528e-05 2.5807578837775590e-04 0.0000000000000000e+00  -7.9634839113136587e-06 1.4540445924091496e-04 0.0000000000000000e+00  -6.7253050735921911e-06 1.0749490270903843e-04 0.0000000000000000e+00  -9.5637655219480420e-06 1.6083599195914779e-04 0.0000000000000000e+00  -1.4508717829599051e-05 1.9913059316445294e-04 0.0000000000000000e+00  -1.7855443102850267e-05 2.2134406812773064e-04 0.0000000000000000e+00  -2.0905965826198292e-05 2.3014830412431233e-04 0.0000000000000000e+00  -2.0625520952480257e-05 1.9526520948938658e-04 0.0000000000000000e+00  -2.3813566491808111e-05 2.4025220893279608e-04 0.0000000000000000e+00  -1.5063675202629601e-05 1.3120635120489284e-04 0.0000000000000000e+00  -1.3289168438271449e-05 9.9149497337671543e-05 0.0000000000000000e+00  -1.0679864656621680e-05 9.5242535263369198e-05 0.0000000000000000e+00  -2.4067208340348173e-05 3.7699303504073225e-04 0.0000000000000000e+00  -2.3263308391564781e-05 3.4299623064611883e-04 0.0000000000000000e+00  -2.2120144906237405e-05 3.6824021796503636e-04 0.0000000000000000e+00  -7.3017677106379336e-06 9.8096571128755025e-05 0.0000000000000000e+00  -3.5968422008129278e-06 4.9663999247391830e-05 0.0000000000000000e+00  -1.8421346050504196e-05 1.3988615965948887e-04 0.0000000000000000e+00  -2.6151198650484718e-05 3.9229006606809159e-04 0.0000000000000000e+00  -2.7974353606495979e-05 3.8598928871104009e-04 0.0000000000000000e+00  -2.5038754154826061e-05 3.6458555466414324e-04 0.0000000000000000e+00  -1.3008720056788935e-05 2.8495294235434315e-04 0.0000000000000000e+00  -1.9719827093875795e-05 2.6588402472793739e-04 0.0000000000000000e+00  -1.6881634049510391e-05 2.4226680845625627e-04 0.0000000000000000e+00  -1.6702217895914857e-05 3.3693236132746710e-04 0.0000000000000000e+00  -1.3782959264289070e-05 2.8756848544630510e-04 0.0000000000000000e+00  -5.0945067906683458e-06 9.0729498007994833e-05 0.0000000000000000e+00  -2.6004441145089720e-05 3.0043537811297701e-04 0.0000000000000000e+00  -2.8085872128144110e-05 3.3730502019923111e-04 0.0000000000000000e+00  -2.9272007847878567e-05 3.0687035171818327e-04 0.0000000000000000e+00  -9.1410850462818873e-06 1.3638707197149094e-04 0.0000000000000000e+00  -2.6256556843466652e-05 3.5292154391355430e-04 0.0000000000000000e+00  -2.1988076963967372e-05 1.7490093977489744e-04 0.0000000000000000e+00  -2.4116515456653239e-05 2.0479740702092019e-04 0.0000000000000000e+00  -1.8884199539966304e-05 1.6507900988615225e-04 0.0000000000000000e+00  -2.9855452975874905e-06 4.8250605333713562e-05 0.0000000000000000e+00  -1.0827416532211342e-05 2.0226422485473557e-04 0.0000000000000000e+00  -1.3268610382217569e-05 2.5436976440847744e-04 0.0000000000000000e+00  -1.3344362158209698e-05 2.3368878505641627e-04 0.0000000000000000e+00  -1.1551087410402125e-05 1.7718712279040321e-04 0.0000000000000000e+00  -1.3864265309523374e-05 2.1759103361308394e-04 0.0000000000000000e+00  -7.5075179437991782e-06 7.7463992799496300e-05 0.0000000000000000e+00  -9.5123303047412252e-06 1.1188266328599978e-04 0.0000000000000000e+00  -4.8052354018003184e-06 5.6860351319664652e-05 0.0000000000000000e+00  -1.1172024021092099e-05 1.4998983067741995e-04 0.0000000000000000e+00  -2.4649976770422331e-05 3.1783598603786332e-04 0.0000000000000000e+00  -2.6637685487232460e-05 2.7263711592483651e-04 0.0000000000000000e+00  -8.3562732558872907e-06 6.7592901834044738e-05 0.0000000000000000e+00  -1.3616800585862298e-05 3.1843859522503743e-04 0.0000000000000000e+00  -2.3682576506723722e-05 2.1966287041661972e-04 0.0000000000000000e+00  0.0000000000000000e+00 0.0000000000000000e+00 0.0000000000000000e+00  -3.5769505397940422e-06 6.8402035702028451e-05 0.0000000000000000e+00  -2.2994171709613585e-06 4.1392304783927012e-05 0.0000000000000000e+00  -2.2666985770504460e-05 2.8317588694172540e-04 0.0000000000000000e+00  -2.9518767942576931e-05 2.7562536251456111e-04 0.0000000000000000e+00  -3.6016301476921743e-06 3.0493121086840981e-05 0.0000000000000000e+00  -3.5385400592815938e-06 3.5976337983926195e-05 0.0000000000000000e+00  -6.8631507644093290e-06 6.2745688094112786e-05 0.0000000000000000e+00  -6.3906441421216607e-06 1.2420866196482798e-04 0.0000000000000000e+00  -4.4612403932628530e-06 3.2501311510634473e-05 0.0000000000000000e+00  -2.3653441496434279e-05 2.6552451819277450e-04 0.0000000000000000e+00  -2.7106207341559775e-05 2.0054893435155133e-04 0.0000000000000000e+00  -8.7836025762133516e-06 1.7318247215399756e-04 0.0000000000000000e+00  -1.3531515116382884e-05 3.2473922085646733e-04 0.0000000000000000e+00  -1.2776268067192514e-05 2.8910936237102383e-04 0.0000000000000000e+00  -1.8333955519653498e-05 3.6200589768530406e-04 0.0000000000000000e+00  -2.0101832458140797e-05 3.6073533157242993e-04 0.0000000000000000e+00  -2.6740739740943981e-05 2.4251507987856980e-04 0.0000000000000000e+00  -1.1408825242323904e-05 1.9679081501894750e-04 0.0000000000000000e+00  -2.4850388939699621e-05 4.0073762499851851e-04 0.0000000000000000e+00  -2.3030143024228631e-05 3.9611234988892751e-04 0.0000000000000000e+00  0.0000000000000000e+00 0.0000000000000000e+00 0.0000000000000000e+00  0.0000000000000000e+00 0.0000000000000000e+00 0.0000000000000000e+00  0.0000000000000000e+00 0.0000000000000000e+00 0.0000000000000000e+00  -1.7692249629652357e-05 3.3760115402793552e-04 0.0000000000000000e+00  0.0000000000000000e+00 0.0000000000000000e+00 0.0000000000000000e+00  0.0000000000000000e+00 0.0000000000000000e+00 0.0000000000000000e+00  -2.1156395807534065e-05 3.8414727530397785e-04 0.0000000000000000e+00  -2.0757885128037574e-05 2.5150506562670357e-04 0.0000000000000000e+00  </DataArray> 
</PointData> 
</Piece>
</UnstructuredGrid>
</VTKFile>