<?xml version="1.0"?>
<VTKFile type="UnstructuredGrid"  version="0.1"  >
<UnstructuredGrid>
<Piece  NumberOfPoints="104" NumberOfCells="167">
<Points>
<DataArray  type="Float64"  NumberOfComponents="3"  format="ascii">0.3012679105156187 0.19 0  0.3006558810093873 0.1999966199048318 0  0.3066757059912147 0.1964092924317024 0  0.301267910515333 0.21 0  0.3067669986803285 0.203627750582736 0  0.3162045149895234 0.21 0  0.3236728172265972 0.21 0  0.3199386661080599 0.202908417313604 0  0.3087362127524279 0.21 0  0.3274069683451451 0.2056971942288527 0  0.312746837849954 0.2054193256016435 0  0.3127789816668748 0.1998657885438805 0  0.3311411194636928 0.21 0  0.3605639237643 0.2793006923612668 0  0.3754967205959606 0.2925860795314694 0  0.3727949441736886 0.2687069143756727 0  0.3265012756581966 0.2702065959162994 0  0.3425185051143286 0.277559411241074 0  0.3236350239119228 0.2946877384927431 0  0.3871536388992142 0.2768042805511501 0  0.3656958473839882 0.2539056765427533 0  0.3826544750917113 0.2574975795502557 0  0.3742999258550256 0.2455889756585279 0  0.3009672322348927 0.299853464475565 0  0.3119706532029335 0.280741853274607 0  0.29813678539982 0.236276478175315 0  0.3103932646053297 0.2435733951751842 0  0.2950877208402625 0.2480324151406079 0  0.3830052789765099 0.2465504596596307 0  0.3418128473615318 0.2384788409515084 0  0.353800124058392 0.2447246903927239 0  0.3411309613953146 0.2501451311933366 0  0.2941337443604631 0.2779157781414069 0  0.2609061472235815 0.2623077995666049 0  0.250265698216607 0.2591459325753045 0  0.2578547799253117 0.2736699879086193 0  0.3249956812055901 0.3123726632318911 0  0.3425309117203542 0.2940518961451331 0  0.3511864556906398 0.3079593845701901 0  0.3803545031770169 0.2233799225275491 0  0.3909674209965625 0.2226356941037057 0  0.3868315570898186 0.2161590584307608 0  0.2959355069777989 0.2600507343559471 0  0.3100661524210835 0.2650982647042849 0  0.2813918607378073 0.2642650598195126 0  0.2764818109814328 0.2785134123591192 0  0.2595321800985562 0.2853145787115269 0  0.2799076752212695 0.2955946972235118 0  0.3386094217007701 0.21 0  0.3460777239378666 0.21 0  0.3422532254316368 0.2186305831010365 0  0.3096074608005889 0.2332284277153185 0  0.3641563190507836 0.3179653487982807 0  0.3419145640611154 0.3257454339814842 0  0.34764135913642 0.3491933721956422 0  0.3236197880522565 0.342390365483443 0  0.3054340412842468 0.3221719107153626 0  0.3342575907952841 0.223845352414335 0  0.330395134354505 0.2334931151381134 0  0.3420126050355882 0.2289014753216907 0  0.3527566348295874 0.2550544260512217 0  0.3422261770849799 0.2620435439696853 0  0.3570962000964671 0.2658531600023138 0  0.3298536818655586 0.2450564271365737 0  0.3717783033973493 0.3492929215517201 0  0.3024586873317863 0.2302383467013988 0  0.319313320275104 0.2539540926591672 0  0.2854688561834498 0.2412236914981949 0  0.2897734241776366 0.2309782844302881 0  0.3056884213926414 0.2536577882881167 0  0.2627897304119148 0.25271037528669 0  0.3647216780759439 0.2309636620771321 0  0.3532661195270175 0.2336617303183129 0  0.3647485037428231 0.2414648470797462 0  0.3436434970543172 0.3743236175823911 0  0.3765649579409498 0.2346032306023708 0  0.3862411203249935 0.2293080201888169 0  0.3125541355310679 0.2174284626835578 0  0.3272784643395017 0.2174232629457372 0  0.3348752705822316 0.2165201420472217 0  0.3497998287380586 0.2162289176852799 0  0.319877191385679 0.2308174713545124 0  0.3199271849027431 0.2215499206710377 0  0.3133403253306649 0.2254657033957812 0  0.3198433526340244 0.2406043114931417 0  0.3264603545297456 0.2254677777931837 0  0.3498118750564168 0.2244634883974543 0  0.3572801772935104 0.2173273935815939 0  0.3582214469498746 0.2931659544846034 0  0.267810768800799 0.2705998356288453 0  0.357905755861004 0.2256377483552234 0  0.3052148703286661 0.2238647990797835 0  0.3050207387251377 0.2160025078068285 0  0.2863686241214745 0.2524447136573785 0  0.364747590224077 0.2216658739063822 0  0.3716385577875085 0.2254972730720332 0  0.3871533862418662 0.2377916209307866 0  0.2751288526855082 0.2504894696471402 0  0.2973772572263381 0.2175617982546508 0  0.3312445077953667 0.2576480961126658 0  0.2703064389008618 0.2603298038584663 0  0.2969986277115119 0.2264901249637967 0  0.2888197773682229 0.2217624015035644 0  0.3199311709679444 0.2151099596031206 0  </DataArray>
</Points>
<Cells>
<DataArray  type="UInt32"  Name="connectivity"  format="ascii">0 1 2  3 1 4  5 6 7  3 8 4  6 7 9  5 7 10  11 7 10  11 2 4  1 2 4  11 4 10  6 12 9  8 5 10  8 4 10  13 14 15  16 17 18  19 14 15  20 21 22  23 24 18  25 26 27  21 22 28  29 30 31  23 24 32  33 34 35  24 16 18  23 36 18  37 36 38  39 40 41  42 32 43  42 32 44  45 46 47  48 49 50  25 26 51  37 36 18  45 32 47  52 53 54  55 36 56  20 21 15  37 17 18  57 58 59  30 31 60  61 17 62  45 32 44  29 63 58  64 52 54  25 51 65  29 58 59  66 16 43  25 67 68  23 36 56  26 27 69  23 32 47  24 32 43  33 34 70  25 67 27  71 72 73  55 74 54  36 53 38  71 75 73  29 30 72  39 40 76  66 26 69  8 5 77  6 12 78  64 74 54  48 50 79  19 21 15  49 50 80  57 78 79  81 82 83  29 63 31  81 51 84  81 82 85  86 87 80  81 58 84  13 14 88  30 72 73  66 26 84  45 46 89  57 50 59  71 90 72  13 17 62  91 77 92  24 16 43  42 44 93  71 94 90  86 50 59  71 94 95  96 75 28  13 17 88  66 43 69  97 44 93  57 78 85  91 98 92  61 16 17  52 14 88  66 63 84  3 98 92  22 75 73  91 77 83  71 95 75  66 63 99  55 36 53  26 51 84  97 70 100  86 87 90  3 8 92  86 72 59  12 48 79  46 35 89  66 16 99  91 98 101  8 77 92  22 75 28  96 75 76  52 88 38  25 68 101  12 78 79  57 50 79  97 44 100  39 75 76  63 58 84  61 60 62  102 68 101  44 100 89  37 17 88  86 50 80  20 30 73  97 67 93  5 77 103  20 22 73  6 78 103  29 72 59  61 16 99  45 44 89  63 31 99  91 51 83  102 98 101  42 27 93  33 70 100  20 30 60  82 77 83  86 90 72  81 51 83  82 78 85  39 95 75  81 58 85  57 58 85  94 87 90  20 15 62  42 43 69  25 101 65  82 77 103  82 78 103  91 51 65  61 31 60  67 27 93  5 6 103  55 53 54  13 15 62  52 53 38  42 27 69  61 31 99  20 60 62  91 101 65  33 35 89  33 100 89  37 88 38  </DataArray>
<DataArray  type="UInt32"  Name="offsets"  format="ascii">3 6 9 12 15 18 21 24 27 30 33 36 39 42 45 48 51 54 57 60 63 66 69 72 75 78 81 84 87 90 93 96 99 102 105 108 111 114 117 120 123 126 129 132 135 138 141 144 147 150 153 156 159 162 165 168 171 174 177 180 183 186 189 192 195 198 201 204 207 210 213 216 219 222 225 228 231 234 237 240 243 246 249 252 255 258 261 264 267 270 273 276 279 282 285 288 291 294 297 300 303 306 309 312 315 318 321 324 327 330 333 336 339 342 345 348 351 354 357 360 363 366 369 372 375 378 381 384 387 390 393 396 399 402 405 408 411 414 417 420 423 426 429 432 435 438 441 444 447 450 453 456 459 462 465 468 471 474 477 480 483 486 489 492 495 498 501 </DataArray>
<DataArray  type="UInt8"  Name="types"  format="ascii">5 5 5 5 5 5 5 5 5 5 5 5 5 5 5 5 5 5 5 5 5 5 5 5 5 5 5 5 5 5 5 5 5 5 5 5 5 5 5 5 5 5 5 5 5 5 5 5 5 5 5 5 5 5 5 5 5 5 5 5 5 5 5 5 5 5 5 5 5 5 5 5 5 5 5 5 5 5 5 5 5 5 5 5 5 5 5 5 5 5 5 5 5 5 5 5 5 5 5 5 5 5 5 5 5 5 5 5 5 5 5 5 5 5 5 5 5 5 5 5 5 5 5 5 5 5 5 5 5 5 5 5 5 5 5 5 5 5 5 5 5 5 5 5 5 5 5 5 5 5 5 5 5 5 5 5 5 5 5 5 5 5 5 5 5 5 5 </DataArray>
</Cells>
<PointData  Vectors="f_43-1"> 
<DataArray  type="Float64"  Name="f_43-1"  NumberOfComponents="3" format="ascii">5.9366317765146539e-06 3.3631320828857801e-05 0.0000000000000000e+00  -1.8397075591877535e-06 3.0588453076875970e-05 0.0000000000000000e+00  7.9755358766838436e-07 3.6554765205612290e-05 0.0000000000000000e+00  -9.7288748370317665e-06 2.8612219093570512e-05 0.0000000000000000e+00  -4.6850770796215729e-06 3.4788183640088589e-05 0.0000000000000000e+00  -9.4087094553445479e-06 4.0567342647090924e-05 0.0000000000000000e+00  -8.8192778007186892e-06 4.6051582889350261e-05 0.0000000000000000e+00  -4.0181133367662029e-06 4.5489397968361225e-05 0.0000000000000000e+00  -9.7217977411116474e-06 3.4689785118431605e-05 0.0000000000000000e+00  -5.5727435303841559e-06 5.0010678873587930e-05 0.0000000000000000e+00  -6.0148901429817584e-06 3.9185555355224378e-05 0.0000000000000000e+00  -1.8763683507514232e-06 4.0701271260202487e-05 0.0000000000000000e+00  -7.9697922658005068e-06 5.0994515994665412e-05 0.0000000000000000e+00  1.8295955416600227e-06 1.4012359002968015e-05 0.0000000000000000e+00  3.0508088291612389e-06 7.4024410257862826e-06 0.0000000000000000e+00  2.8337209456649358e-06 1.6349342682175529e-05 0.0000000000000000e+00  -8.4185091302233421e-07 1.7412695447747579e-05 0.0000000000000000e+00  4.4147030647063823e-07 1.5706822835298600e-05 0.0000000000000000e+00  4.8669380288742844e-08 1.0785899443695406e-05 0.0000000000000000e+00  4.2846848715562505e-06 9.4385535197784591e-06 0.0000000000000000e+00  1.7001242638083554e-06 2.5072940306771404e-05 0.0000000000000000e+00  3.9361717024727686e-06 1.9504082045649048e-05 0.0000000000000000e+00  2.6009016803541179e-06 2.8934822916789478e-05 0.0000000000000000e+00  -4.0530076308896601e-07 8.6902144121927817e-06 0.0000000000000000e+00  -8.5402574452696979e-07 1.3087101009726752e-05 0.0000000000000000e+00  -4.7532319771409877e-06 2.0314398331163005e-05 0.0000000000000000e+00  -3.7569831040384759e-06 2.2973966173079586e-05 0.0000000000000000e+00  -3.3667504093938505e-06 1.6788048613407769e-05 0.0000000000000000e+00  3.9387379188594545e-06 2.6070218799831673e-05 0.0000000000000000e+00  -2.2148459013965198e-06 3.4065643929280008e-05 0.0000000000000000e+00  -2.5940033644002875e-07 3.1295851666725429e-05 0.0000000000000000e+00  -1.2079015720288968e-06 2.7257544189970010e-05 0.0000000000000000e+00  -1.2964321904525753e-06 1.1350654149960711e-05 0.0000000000000000e+00  -1.4501799430533623e-06 6.8677693489764815e-06 0.0000000000000000e+00  -1.1103542229606994e-06 4.9389928634026673e-06 0.0000000000000000e+00  -1.0749750848336125e-06 6.1309167433385247e-06 0.0000000000000000e+00  4.5912237568765828e-07 7.4823981671563008e-06 0.0000000000000000e+00  8.8998376280956383e-07 1.0872054208130344e-05 0.0000000000000000e+00  1.4866035664048308e-06 7.1952581559775729e-06 0.0000000000000000e+00  2.9575980509068722e-06 4.6242461985854441e-05 0.0000000000000000e+00  5.2819851094076715e-06 4.3202124560336584e-05 0.0000000000000000e+00  4.2365254696030391e-06 5.1989138909819804e-05 0.0000000000000000e+00  -2.3504845125253378e-06 1.4759668082415966e-05 0.0000000000000000e+00  -1.8009214662557912e-06 1.6589827379132295e-05 0.0000000000000000e+00  -1.9402747301035607e-06 1.0893893355536196e-05 0.0000000000000000e+00  -1.2391118093893405e-06 8.6335333057853567e-06 0.0000000000000000e+00  -8.5184337082813250e-07 5.9382230905745677e-06 0.0000000000000000e+00  -7.1666336229922967e-07 7.4318002211017604e-06 0.0000000000000000e+00  -6.8877394006000414e-06 5.5243136269813555e-05 0.0000000000000000e+00  -5.5891209082913722e-06 5.8682899472396574e-05 0.0000000000000000e+00  -4.7640406381310808e-06 4.8967976029887690e-05 0.0000000000000000e+00  -5.1443071865665376e-06 2.6198655646602306e-05 0.0000000000000000e+00  2.0829545528067342e-06 4.0299893651304353e-06 0.0000000000000000e+00  1.1073576003262984e-06 4.9309619362719144e-06 0.0000000000000000e+00  1.1024913976889771e-06 2.1491953279300534e-06 0.0000000000000000e+00  5.8677882850861089e-07 3.7390089913954846e-06 0.0000000000000000e+00  1.0710393207235319e-07 5.9421127284279039e-06 0.0000000000000000e+00  -4.9814609816534922e-06 4.1828105078993399e-05 0.0000000000000000e+00  -3.9485071405371777e-06 3.4226106880796762e-05 0.0000000000000000e+00  -3.3115434077189734e-06 4.0655881057340030e-05 0.0000000000000000e+00  2.7390768143612721e-07 2.5256765456887142e-05 0.0000000000000000e+00  -2.9843432525050393e-07 2.1662086313303778e-05 0.0000000000000000e+00  1.1887094840527213e-06 1.9767923099908204e-05 0.0000000000000000e+00  -2.6175419638308544e-06 2.7930301636605161e-05 0.0000000000000000e+00  1.7754090075028499e-06 7.8297791097548364e-08 0.0000000000000000e+00  -5.6700087666141783e-06 2.3789315420977808e-05 0.0000000000000000e+00  -2.3680060842761409e-06 2.1840469385497793e-05 0.0000000000000000e+00  -3.7904005916533007e-06 1.4496714054435800e-05 0.0000000000000000e+00  -5.2213936040196552e-06 1.7455373555522406e-05 0.0000000000000000e+00  -2.8062205942072773e-06 1.8612004030824615e-05 0.0000000000000000e+00  -1.8394564946614329e-06 7.3232003827176838e-06 0.0000000000000000e+00  3.4706391721112191e-07 4.1470823473683639e-05 0.0000000000000000e+00  -1.2420611222726857e-06 3.9004096942973697e-05 0.0000000000000000e+00  1.0141599705329186e-06 3.3208137777854790e-05 0.0000000000000000e+00  6.4988307665485063e-07 9.4692575345908034e-07 0.0000000000000000e+00  2.6213523964749429e-06 3.6785086860966656e-05 0.0000000000000000e+00  4.3278149489214040e-06 3.8631786834675197e-05 0.0000000000000000e+00  -7.8875978102713690e-06 3.4172840748285218e-05 0.0000000000000000e+00  -6.8700296730628725e-06 4.3092967847758331e-05 0.0000000000000000e+00  -6.1672637148023330e-06 4.7666178256513799e-05 0.0000000000000000e+00  -3.8877058577625884e-06 5.3588667753835207e-05 0.0000000000000000e+00  -5.1032363467950895e-06 3.1699654146055617e-05 0.0000000000000000e+00  -6.6806648398823308e-06 3.6511191516223653e-05 0.0000000000000000e+00  -6.2987351634644656e-06 3.1050095395535020e-05 0.0000000000000000e+00  -3.7548212643115803e-06 2.7215623529016630e-05 0.0000000000000000e+00  -5.4927907239570012e-06 3.7483333243398290e-05 0.0000000000000000e+00  -2.7654466891545357e-06 4.5990121211081223e-05 0.0000000000000000e+00  -2.3307400185161079e-06 5.4041343051114411e-05 0.0000000000000000e+00  1.8177713075850463e-06 9.9535210877461840e-06 0.0000000000000000e+00  -1.3845758163106673e-06 7.8189662454654449e-06 0.0000000000000000e+00  -1.2900440107287841e-06 4.6072262466714028e-05 0.0000000000000000e+00  -6.7579664537062303e-06 2.7159812958256112e-05 0.0000000000000000e+00  -8.3460521579968743e-06 2.9625395475457831e-05 0.0000000000000000e+00  -2.8195979880013997e-06 1.3477074814913282e-05 0.0000000000000000e+00  -3.9612553575124611e-07 5.0121837577921581e-05 0.0000000000000000e+00  1.2598373552556931e-06 4.5863775166997971e-05 0.0000000000000000e+00  4.5714003929759799e-06 3.1074389339905497e-05 0.0000000000000000e+00  -2.5637829180150365e-06 1.0499402815165293e-05 0.0000000000000000e+00  -7.8850810641471737e-06 2.3920165635140513e-05 0.0000000000000000e+00  -1.3976579931491057e-06 2.2536635396359289e-05 0.0000000000000000e+00  -1.8511118111198275e-06 8.8223228914544810e-06 0.0000000000000000e+00  -6.1958110559481357e-06 2.1861364829599524e-05 0.0000000000000000e+00  -6.6192427858639268e-06 1.7910918755635037e-05 0.0000000000000000e+00  -7.9813404519620579e-06 4.0201133021586053e-05 0.0000000000000000e+00  </DataArray> 
</PointData> 
</Piece>
</UnstructuredGrid>
</VTKFile>