<?xml version="1.0"?>
<VTKFile type="UnstructuredGrid"  version="0.1"  >
<UnstructuredGrid>
<Piece  NumberOfPoints="104" NumberOfCells="167">
<Points>
<DataArray  type="Float64"  NumberOfComponents="3"  format="ascii">0.3012679105156187 0.19 0  0.3006558810093873 0.1999966199048318 0  0.3066757059912147 0.1964092924317024 0  0.301267910515333 0.21 0  0.3067669986803285 0.203627750582736 0  0.3162045149895234 0.21 0  0.3236728172265972 0.21 0  0.3199386661080599 0.202908417313604 0  0.3087362127524279 0.21 0  0.3274069683451451 0.2056971942288527 0  0.312746837849954 0.2054193256016435 0  0.3127789816668748 0.1998657885438805 0  0.3311411194636928 0.21 0  0.3605639237643 0.2793006923612668 0  0.3754967205959606 0.2925860795314694 0  0.3727949441736886 0.2687069143756727 0  0.3265012756581966 0.2702065959162994 0  0.3425185051143286 0.277559411241074 0  0.3236350239119228 0.2946877384927431 0  0.3871536388992142 0.2768042805511501 0  0.3656958473839882 0.2539056765427533 0  0.3826544750917113 0.2574975795502557 0  0.3742999258550256 0.2455889756585279 0  0.3009672322348927 0.299853464475565 0  0.3119706532029335 0.280741853274607 0  0.29813678539982 0.236276478175315 0  0.3103932646053297 0.2435733951751842 0  0.2950877208402625 0.2480324151406079 0  0.3830052789765099 0.2465504596596307 0  0.3418128473615318 0.2384788409515084 0  0.353800124058392 0.2447246903927239 0  0.3411309613953146 0.2501451311933366 0  0.2941337443604631 0.2779157781414069 0  0.2609061472235815 0.2623077995666049 0  0.250265698216607 0.2591459325753045 0  0.2578547799253117 0.2736699879086193 0  0.3249956812055901 0.3123726632318911 0  0.3425309117203542 0.2940518961451331 0  0.3511864556906398 0.3079593845701901 0  0.3803545031770169 0.2233799225275491 0  0.3909674209965625 0.2226356941037057 0  0.3868315570898186 0.2161590584307608 0  0.2959355069777989 0.2600507343559471 0  0.3100661524210835 0.2650982647042849 0  0.2813918607378073 0.2642650598195126 0  0.2764818109814328 0.2785134123591192 0  0.2595321800985562 0.2853145787115269 0  0.2799076752212695 0.2955946972235118 0  0.3386094217007701 0.21 0  0.3460777239378666 0.21 0  0.3422532254316368 0.2186305831010365 0  0.3096074608005889 0.2332284277153185 0  0.3641563190507836 0.3179653487982807 0  0.3419145640611154 0.3257454339814842 0  0.34764135913642 0.3491933721956422 0  0.3236197880522565 0.342390365483443 0  0.3054340412842468 0.3221719107153626 0  0.3342575907952841 0.223845352414335 0  0.330395134354505 0.2334931151381134 0  0.3420126050355882 0.2289014753216907 0  0.3527566348295874 0.2550544260512217 0  0.3422261770849799 0.2620435439696853 0  0.3570962000964671 0.2658531600023138 0  0.3298536818655586 0.2450564271365737 0  0.3717783033973493 0.3492929215517201 0  0.3024586873317863 0.2302383467013988 0  0.319313320275104 0.2539540926591672 0  0.2854688561834498 0.2412236914981949 0  0.2897734241776366 0.2309782844302881 0  0.3056884213926414 0.2536577882881167 0  0.2627897304119148 0.25271037528669 0  0.3647216780759439 0.2309636620771321 0  0.3532661195270175 0.2336617303183129 0  0.3647485037428231 0.2414648470797462 0  0.3436434970543172 0.3743236175823911 0  0.3765649579409498 0.2346032306023708 0  0.3862411203249935 0.2293080201888169 0  0.3125541355310679 0.2174284626835578 0  0.3272784643395017 0.2174232629457372 0  0.3348752705822316 0.2165201420472217 0  0.3497998287380586 0.2162289176852799 0  0.319877191385679 0.2308174713545124 0  0.3199271849027431 0.2215499206710377 0  0.3133403253306649 0.2254657033957812 0  0.3198433526340244 0.2406043114931417 0  0.3264603545297456 0.2254677777931837 0  0.3498118750564168 0.2244634883974543 0  0.3572801772935104 0.2173273935815939 0  0.3582214469498746 0.2931659544846034 0  0.267810768800799 0.2705998356288453 0  0.357905755861004 0.2256377483552234 0  0.3052148703286661 0.2238647990797835 0  0.3050207387251377 0.2160025078068285 0  0.2863686241214745 0.2524447136573785 0  0.364747590224077 0.2216658739063822 0  0.3716385577875085 0.2254972730720332 0  0.3871533862418662 0.2377916209307866 0  0.2751288526855082 0.2504894696471402 0  0.2973772572263381 0.2175617982546508 0  0.3312445077953667 0.2576480961126658 0  0.2703064389008618 0.2603298038584663 0  0.2969986277115119 0.2264901249637967 0  0.2888197773682229 0.2217624015035644 0  0.3199311709679444 0.2151099596031206 0  </DataArray>
</Points>
<Cells>
<DataArray  type="UInt32"  Name="connectivity"  format="ascii">0 1 2  3 1 4  5 6 7  3 8 4  6 7 9  5 7 10  11 7 10  11 2 4  1 2 4  11 4 10  6 12 9  8 5 10  8 4 10  13 14 15  16 17 18  19 14 15  20 21 22  23 24 18  25 26 27  21 22 28  29 30 31  23 24 32  33 34 35  24 16 18  23 36 18  37 36 38  39 40 41  42 32 43  42 32 44  45 46 47  48 49 50  25 26 51  37 36 18  45 32 47  52 53 54  55 36 56  20 21 15  37 17 18  57 58 59  30 31 60  61 17 62  45 32 44  29 63 58  64 52 54  25 51 65  29 58 59  66 16 43  25 67 68  23 36 56  26 27 69  23 32 47  24 32 43  33 34 70  25 67 27  71 72 73  55 74 54  36 53 38  71 75 73  29 30 72  39 40 76  66 26 69  8 5 77  6 12 78  64 74 54  48 50 79  19 21 15  49 50 80  57 78 79  81 82 83  29 63 31  81 51 84  81 82 85  86 87 80  81 58 84  13 14 88  30 72 73  66 26 84  45 46 89  57 50 59  71 90 72  13 17 62  91 77 92  24 16 43  42 44 93  71 94 90  86 50 59  71 94 95  96 75 28  13 17 88  66 43 69  97 44 93  57 78 85  91 98 92  61 16 17  52 14 88  66 63 84  3 98 92  22 75 73  91 77 83  71 95 75  66 63 99  55 36 53  26 51 84  97 70 100  86 87 90  3 8 92  86 72 59  12 48 79  46 35 89  66 16 99  91 98 101  8 77 92  22 75 28  96 75 76  52 88 38  25 68 101  12 78 79  57 50 79  97 44 100  39 75 76  63 58 84  61 60 62  102 68 101  44 100 89  37 17 88  86 50 80  20 30 73  97 67 93  5 77 103  20 22 73  6 78 103  29 72 59  61 16 99  45 44 89  63 31 99  91 51 83  102 98 101  42 27 93  33 70 100  20 30 60  82 77 83  86 90 72  81 51 83  82 78 85  39 95 75  81 58 85  57 58 85  94 87 90  20 15 62  42 43 69  25 101 65  82 77 103  82 78 103  91 51 65  61 31 60  67 27 93  5 6 103  55 53 54  13 15 62  52 53 38  42 27 69  61 31 99  20 60 62  91 101 65  33 35 89  33 100 89  37 88 38  </DataArray>
<DataArray  type="UInt32"  Name="offsets"  format="ascii">3 6 9 12 15 18 21 24 27 30 33 36 39 42 45 48 51 54 57 60 63 66 69 72 75 78 81 84 87 90 93 96 99 102 105 108 111 114 117 120 123 126 129 132 135 138 141 144 147 150 153 156 159 162 165 168 171 174 177 180 183 186 189 192 195 198 201 204 207 210 213 216 219 222 225 228 231 234 237 240 243 246 249 252 255 258 261 264 267 270 273 276 279 282 285 288 291 294 297 300 303 306 309 312 315 318 321 324 327 330 333 336 339 342 345 348 351 354 357 360 363 366 369 372 375 378 381 384 387 390 393 396 399 402 405 408 411 414 417 420 423 426 429 432 435 438 441 444 447 450 453 456 459 462 465 468 471 474 477 480 483 486 489 492 495 498 501 </DataArray>
<DataArray  type="UInt8"  Name="types"  format="ascii">5 5 5 5 5 5 5 5 5 5 5 5 5 5 5 5 5 5 5 5 5 5 5 5 5 5 5 5 5 5 5 5 5 5 5 5 5 5 5 5 5 5 5 5 5 5 5 5 5 5 5 5 5 5 5 5 5 5 5 5 5 5 5 5 5 5 5 5 5 5 5 5 5 5 5 5 5 5 5 5 5 5 5 5 5 5 5 5 5 5 5 5 5 5 5 5 5 5 5 5 5 5 5 5 5 5 5 5 5 5 5 5 5 5 5 5 5 5 5 5 5 5 5 5 5 5 5 5 5 5 5 5 5 5 5 5 5 5 5 5 5 5 5 5 5 5 5 5 5 5 5 5 5 5 5 5 5 5 5 5 5 5 5 5 5 5 5 </DataArray>
</Cells>
<PointData  Vectors="f_43-1"> 
<DataArray  type="Float64"  Name="f_43-1"  NumberOfComponents="3" format="ascii">-3.3231285987214381e-07 3.4240589430364298e-07 0.0000000000000000e+00  -2.9299851374226259e-07 -1.2097389247817973e-07 0.0000000000000000e+00  -3.4088002634211826e-07 2.1181798687422085e-08 0.0000000000000000e+00  -2.5647443043481737e-07 -5.9203757748033211e-07 0.0000000000000000e+00  -3.1298607263370404e-07 -3.1418392086766821e-07 0.0000000000000000e+00  -3.4051515085184358e-07 -6.4499095201388347e-07 0.0000000000000000e+00  -3.8813905134214607e-07 -6.7327446207994602e-07 0.0000000000000000e+00  -3.9646059128017115e-07 -3.3491018754054463e-07 0.0000000000000000e+00  -2.9662891443465973e-07 -6.1778058458519931e-07 0.0000000000000000e+00  -4.3396318247385776e-07 -4.9307805666317217e-07 0.0000000000000000e+00  -3.4039904863400834e-07 -4.2066102322884254e-07 0.0000000000000000e+00  -3.6408490268155644e-07 -1.6478445263667515e-07 0.0000000000000000e+00  -4.3950647955056626e-07 -7.0223754034506687e-07 0.0000000000000000e+00  -5.5518208145997659e-07 -4.5633847689319630e-07 0.0000000000000000e+00  -5.8844247392751099e-07 -4.2640339704907475e-07 0.0000000000000000e+00  -6.6484733240081857e-07 -5.3133887139580015e-07 0.0000000000000000e+00  -3.9489689145535212e-07 -4.1108667060038558e-07 0.0000000000000000e+00  -4.6225875389834026e-07 -4.2322061889621419e-07 0.0000000000000000e+00  -3.3891170749579153e-07 -3.1691944576006464e-07 0.0000000000000000e+00  -7.2710776949942895e-07 -5.2025397884984663e-07 0.0000000000000000e+00  -6.6076591009677086e-07 -5.8805599512702558e-07 0.0000000000000000e+00  -7.7415272716731238e-07 -6.1008460854229395e-07 0.0000000000000000e+00  -7.4691208856672488e-07 -6.5415800305133383e-07 0.0000000000000000e+00  -2.4795149355007025e-07 -2.5020959168523680e-07 0.0000000000000000e+00  -3.1456329686095962e-07 -3.3360635330836048e-07 0.0000000000000000e+00  -2.6844687295070981e-07 -4.5111723594885383e-07 0.0000000000000000e+00  -3.3207542722354266e-07 -4.6652284955487004e-07 0.0000000000000000e+00  -2.5811058625795873e-07 -3.8931713284194765e-07 0.0000000000000000e+00  -8.1442719569476910e-07 -6.7092935484108855e-07 0.0000000000000000e+00  -5.2008829293642615e-07 -5.9615101033296268e-07 0.0000000000000000e+00  -5.9546527033984229e-07 -6.0185820358533641e-07 0.0000000000000000e+00  -5.0384694271240381e-07 -5.3831235941038147e-07 0.0000000000000000e+00  -2.4696087358355332e-07 -2.8991873374325542e-07 0.0000000000000000e+00  -1.3077157560421986e-07 -1.9516942814035295e-07 0.0000000000000000e+00  -9.5052200055900939e-08 -1.4668356663333734e-07 0.0000000000000000e+00  -1.2818183534556100e-07 -1.7256590211132639e-07 0.0000000000000000e+00  -3.0373459537226915e-07 -2.6360961711617565e-07 0.0000000000000000e+00  -4.2052000604865016e-07 -3.5924167005376717e-07 0.0000000000000000e+00  -4.1465520211859816e-07 -3.2375209816141029e-07 0.0000000000000000e+00  -8.5085144118875379e-07 -8.0165532113478519e-07 0.0000000000000000e+00  -9.5728297876786036e-07 -8.3803893217872506e-07 0.0000000000000000e+00  -9.2918604932282812e-07 -8.6870512635841755e-07 0.0000000000000000e+00  -2.6185146398380388e-07 -3.4973605924765555e-07 0.0000000000000000e+00  -3.2214899105704608e-07 -3.8112085202685945e-07 0.0000000000000000e+00  -2.0312996833632019e-07 -2.8071502787366838e-07 0.0000000000000000e+00  -1.8518145310357553e-07 -2.3125400797943024e-07 0.0000000000000000e+00  -1.3540293172513561e-07 -1.6726010666196648e-07 0.0000000000000000e+00  -1.8775602830084056e-07 -2.0840892836171242e-07 0.0000000000000000e+00  -4.9461562560128066e-07 -7.3154951578851636e-07 0.0000000000000000e+00  -5.5347107076978022e-07 -7.6087363158175043e-07 0.0000000000000000e+00  -5.2800366597602031e-07 -6.9938737732286617e-07 0.0000000000000000e+00  -3.2566728901197307e-07 -5.0956801195771862e-07 0.0000000000000000e+00  -4.2848710760667277e-07 -3.0613676456250942e-07 0.0000000000000000e+00  -3.2027144490815632e-07 -2.4820451251384525e-07 0.0000000000000000e+00  -2.5046643460976443e-07 -1.8024718566781149e-07 0.0000000000000000e+00  -2.1786745611148498e-07 -1.7496167076141199e-07 0.0000000000000000e+00  -2.2260168990726068e-07 -2.0233017692847124e-07 0.0000000000000000e+00  -4.7203803018882920e-07 -6.4341027671403222e-07 0.0000000000000000e+00  -4.4740776310790066e-07 -5.8238355978465384e-07 0.0000000000000000e+00  -5.2642645516489666e-07 -6.4489885609782367e-07 0.0000000000000000e+00  -5.7016648029031442e-07 -5.4830034731236870e-07 0.0000000000000000e+00  -4.9236481315437513e-07 -4.8779202679536139e-07 0.0000000000000000e+00  -5.7325261732768872e-07 -5.0885331628265041e-07 0.0000000000000000e+00  -4.3983395846006081e-07 -5.2658657524017923e-07 0.0000000000000000e+00  -3.0960252789065496e-07 -2.0108638420963628e-07 0.0000000000000000e+00  -2.8645699381450491e-07 -4.9630470482378892e-07 0.0000000000000000e+00  -3.7531864955649511e-07 -4.5391144844933179e-07 0.0000000000000000e+00  -2.1220361728341892e-07 -3.7327995058116301e-07 0.0000000000000000e+00  -2.2508454947965876e-07 -4.4028155911340761e-07 0.0000000000000000e+00  -3.0737882527088491e-07 -4.0851923641612107e-07 0.0000000000000000e+00  -1.2905526894785094e-07 -2.1596258123423500e-07 0.0000000000000000e+00  -6.9936037385513372e-07 -7.0814039462649854e-07 0.0000000000000000e+00  -6.0584403107190308e-07 -6.5732939051522201e-07 0.0000000000000000e+00  -6.8179353050317559e-07 -6.5041271651131961e-07 0.0000000000000000e+00  -1.4396611900973849e-07 -1.0173199682187489e-07 0.0000000000000000e+00  -7.9283058706533721e-07 -7.2246446476679576e-07 0.0000000000000000e+00  -8.9350873526410268e-07 -7.8177389661829301e-07 0.0000000000000000e+00  -3.2934401996141228e-07 -5.9561723427768959e-07 0.0000000000000000e+00  -4.2090643899999585e-07 -6.5005597015663670e-07 0.0000000000000000e+00  -4.7267318671490118e-07 -6.8303243613710911e-07 0.0000000000000000e+00  -5.8642910798140523e-07 -7.4026812797886053e-07 0.0000000000000000e+00  -3.8257919130384571e-07 -5.5817256063237934e-07 0.0000000000000000e+00  -3.7750670192598589e-07 -6.0269293278419078e-07 0.0000000000000000e+00  -3.4171361210474228e-07 -5.5978010372449116e-07 0.0000000000000000e+00  -3.8340374083183217e-07 -5.1305358526486952e-07 0.0000000000000000e+00  -4.2093587754897612e-07 -6.0738358435404564e-07 0.0000000000000000e+00  -5.8571550247656040e-07 -6.9506367635967758e-07 0.0000000000000000e+00  -6.4853518934278997e-07 -7.6127197289937047e-07 0.0000000000000000e+00  -4.9711898794556440e-07 -3.9324920236096189e-07 0.0000000000000000e+00  -1.5699308487350593e-07 -2.1372273501384354e-07 0.0000000000000000e+00  -6.4935600379023499e-07 -7.1612052156971364e-07 0.0000000000000000e+00  -2.9565587758814946e-07 -5.3742248270119278e-07 0.0000000000000000e+00  -2.8555106670359751e-07 -5.7532140603369398e-07 0.0000000000000000e+00  -2.2089907313185621e-07 -3.3614923680535563e-07 0.0000000000000000e+00  -7.1046940536922589e-07 -7.6187468189578141e-07 0.0000000000000000e+00  -7.6674861306609002e-07 -7.6155842748054361e-07 0.0000000000000000e+00  -8.7775544831292769e-07 -7.3233182137540954e-07 0.0000000000000000e+00  -1.7404982936498770e-07 -2.8822197657714892e-07 0.0000000000000000e+00  -2.4834978562414140e-07 -5.4019956963079418e-07 0.0000000000000000e+00  -4.3640156122225220e-07 -4.7558938756667948e-07 0.0000000000000000e+00  -1.6143375818978309e-07 -2.4162241736720641e-07 0.0000000000000000e+00  -2.5607200108856862e-07 -4.9306214266380075e-07 0.0000000000000000e+00  -2.1245343187473490e-07 -4.8529541832012577e-07 0.0000000000000000e+00  -3.7092391993895806e-07 -6.3406132851963597e-07 0.0000000000000000e+00  </DataArray> 
</PointData> 
</Piece>
</UnstructuredGrid>
</VTKFile>