<?xml version="1.0"?>
<VTKFile type="UnstructuredGrid"  version="0.1"  >
<UnstructuredGrid>
<Piece  NumberOfPoints="104" NumberOfCells="167">
<Points>
<DataArray  type="Float64"  NumberOfComponents="3"  format="ascii">0.3012679105156187 0.19 0  0.3006558810093873 0.1999966199048318 0  0.3066757059912147 0.1964092924317024 0  0.301267910515333 0.21 0  0.3067669986803285 0.203627750582736 0  0.3162045149895234 0.21 0  0.3236728172265972 0.21 0  0.3199386661080599 0.202908417313604 0  0.3087362127524279 0.21 0  0.3274069683451451 0.2056971942288527 0  0.312746837849954 0.2054193256016435 0  0.3127789816668748 0.1998657885438805 0  0.3311411194636928 0.21 0  0.3605639237643 0.2793006923612668 0  0.3754967205959606 0.2925860795314694 0  0.3727949441736886 0.2687069143756727 0  0.3265012756581966 0.2702065959162994 0  0.3425185051143286 0.277559411241074 0  0.3236350239119228 0.2946877384927431 0  0.3871536388992142 0.2768042805511501 0  0.3656958473839882 0.2539056765427533 0  0.3826544750917113 0.2574975795502557 0  0.3742999258550256 0.2455889756585279 0  0.3009672322348927 0.299853464475565 0  0.3119706532029335 0.280741853274607 0  0.29813678539982 0.236276478175315 0  0.3103932646053297 0.2435733951751842 0  0.2950877208402625 0.2480324151406079 0  0.3830052789765099 0.2465504596596307 0  0.3418128473615318 0.2384788409515084 0  0.353800124058392 0.2447246903927239 0  0.3411309613953146 0.2501451311933366 0  0.2941337443604631 0.2779157781414069 0  0.2609061472235815 0.2623077995666049 0  0.250265698216607 0.2591459325753045 0  0.2578547799253117 0.2736699879086193 0  0.3249956812055901 0.3123726632318911 0  0.3425309117203542 0.2940518961451331 0  0.3511864556906398 0.3079593845701901 0  0.3803545031770169 0.2233799225275491 0  0.3909674209965625 0.2226356941037057 0  0.3868315570898186 0.2161590584307608 0  0.2959355069777989 0.2600507343559471 0  0.3100661524210835 0.2650982647042849 0  0.2813918607378073 0.2642650598195126 0  0.2764818109814328 0.2785134123591192 0  0.2595321800985562 0.2853145787115269 0  0.2799076752212695 0.2955946972235118 0  0.3386094217007701 0.21 0  0.3460777239378666 0.21 0  0.3422532254316368 0.2186305831010365 0  0.3096074608005889 0.2332284277153185 0  0.3641563190507836 0.3179653487982807 0  0.3419145640611154 0.3257454339814842 0  0.34764135913642 0.3491933721956422 0  0.3236197880522565 0.342390365483443 0  0.3054340412842468 0.3221719107153626 0  0.3342575907952841 0.223845352414335 0  0.330395134354505 0.2334931151381134 0  0.3420126050355882 0.2289014753216907 0  0.3527566348295874 0.2550544260512217 0  0.3422261770849799 0.2620435439696853 0  0.3570962000964671 0.2658531600023138 0  0.3298536818655586 0.2450564271365737 0  0.3717783033973493 0.3492929215517201 0  0.3024586873317863 0.2302383467013988 0  0.319313320275104 0.2539540926591672 0  0.2854688561834498 0.2412236914981949 0  0.2897734241776366 0.2309782844302881 0  0.3056884213926414 0.2536577882881167 0  0.2627897304119148 0.25271037528669 0  0.3647216780759439 0.2309636620771321 0  0.3532661195270175 0.2336617303183129 0  0.3647485037428231 0.2414648470797462 0  0.3436434970543172 0.3743236175823911 0  0.3765649579409498 0.2346032306023708 0  0.3862411203249935 0.2293080201888169 0  0.3125541355310679 0.2174284626835578 0  0.3272784643395017 0.2174232629457372 0  0.3348752705822316 0.2165201420472217 0  0.3497998287380586 0.2162289176852799 0  0.319877191385679 0.2308174713545124 0  0.3199271849027431 0.2215499206710377 0  0.3133403253306649 0.2254657033957812 0  0.3198433526340244 0.2406043114931417 0  0.3264603545297456 0.2254677777931837 0  0.3498118750564168 0.2244634883974543 0  0.3572801772935104 0.2173273935815939 0  0.3582214469498746 0.2931659544846034 0  0.267810768800799 0.2705998356288453 0  0.357905755861004 0.2256377483552234 0  0.3052148703286661 0.2238647990797835 0  0.3050207387251377 0.2160025078068285 0  0.2863686241214745 0.2524447136573785 0  0.364747590224077 0.2216658739063822 0  0.3716385577875085 0.2254972730720332 0  0.3871533862418662 0.2377916209307866 0  0.2751288526855082 0.2504894696471402 0  0.2973772572263381 0.2175617982546508 0  0.3312445077953667 0.2576480961126658 0  0.2703064389008618 0.2603298038584663 0  0.2969986277115119 0.2264901249637967 0  0.2888197773682229 0.2217624015035644 0  0.3199311709679444 0.2151099596031206 0  </DataArray>
</Points>
<Cells>
<DataArray  type="UInt32"  Name="connectivity"  format="ascii">0 1 2  3 1 4  5 6 7  3 8 4  6 7 9  5 7 10  11 7 10  11 2 4  1 2 4  11 4 10  6 12 9  8 5 10  8 4 10  13 14 15  16 17 18  19 14 15  20 21 22  23 24 18  25 26 27  21 22 28  29 30 31  23 24 32  33 34 35  24 16 18  23 36 18  37 36 38  39 40 41  42 32 43  42 32 44  45 46 47  48 49 50  25 26 51  37 36 18  45 32 47  52 53 54  55 36 56  20 21 15  37 17 18  57 58 59  30 31 60  61 17 62  45 32 44  29 63 58  64 52 54  25 51 65  29 58 59  66 16 43  25 67 68  23 36 56  26 27 69  23 32 47  24 32 43  33 34 70  25 67 27  71 72 73  55 74 54  36 53 38  71 75 73  29 30 72  39 40 76  66 26 69  8 5 77  6 12 78  64 74 54  48 50 79  19 21 15  49 50 80  57 78 79  81 82 83  29 63 31  81 51 84  81 82 85  86 87 80  81 58 84  13 14 88  30 72 73  66 26 84  45 46 89  57 50 59  71 90 72  13 17 62  91 77 92  24 16 43  42 44 93  71 94 90  86 50 59  71 94 95  96 75 28  13 17 88  66 43 69  97 44 93  57 78 85  91 98 92  61 16 17  52 14 88  66 63 84  3 98 92  22 75 73  91 77 83  71 95 75  66 63 99  55 36 53  26 51 84  97 70 100  86 87 90  3 8 92  86 72 59  12 48 79  46 35 89  66 16 99  91 98 101  8 77 92  22 75 28  96 75 76  52 88 38  25 68 101  12 78 79  57 50 79  97 44 100  39 75 76  63 58 84  61 60 62  102 68 101  44 100 89  37 17 88  86 50 80  20 30 73  97 67 93  5 77 103  20 22 73  6 78 103  29 72 59  61 16 99  45 44 89  63 31 99  91 51 83  102 98 101  42 27 93  33 70 100  20 30 60  82 77 83  86 90 72  81 51 83  82 78 85  39 95 75  81 58 85  57 58 85  94 87 90  20 15 62  42 43 69  25 101 65  82 77 103  82 78 103  91 51 65  61 31 60  67 27 93  5 6 103  55 53 54  13 15 62  52 53 38  42 27 69  61 31 99  20 60 62  91 101 65  33 35 89  33 100 89  37 88 38  </DataArray>
<DataArray  type="UInt32"  Name="offsets"  format="ascii">3 6 9 12 15 18 21 24 27 30 33 36 39 42 45 48 51 54 57 60 63 66 69 72 75 78 81 84 87 90 93 96 99 102 105 108 111 114 117 120 123 126 129 132 135 138 141 144 147 150 153 156 159 162 165 168 171 174 177 180 183 186 189 192 195 198 201 204 207 210 213 216 219 222 225 228 231 234 237 240 243 246 249 252 255 258 261 264 267 270 273 276 279 282 285 288 291 294 297 300 303 306 309 312 315 318 321 324 327 330 333 336 339 342 345 348 351 354 357 360 363 366 369 372 375 378 381 384 387 390 393 396 399 402 405 408 411 414 417 420 423 426 429 432 435 438 441 444 447 450 453 456 459 462 465 468 471 474 477 480 483 486 489 492 495 498 501 </DataArray>
<DataArray  type="UInt8"  Name="types"  format="ascii">5 5 5 5 5 5 5 5 5 5 5 5 5 5 5 5 5 5 5 5 5 5 5 5 5 5 5 5 5 5 5 5 5 5 5 5 5 5 5 5 5 5 5 5 5 5 5 5 5 5 5 5 5 5 5 5 5 5 5 5 5 5 5 5 5 5 5 5 5 5 5 5 5 5 5 5 5 5 5 5 5 5 5 5 5 5 5 5 5 5 5 5 5 5 5 5 5 5 5 5 5 5 5 5 5 5 5 5 5 5 5 5 5 5 5 5 5 5 5 5 5 5 5 5 5 5 5 5 5 5 5 5 5 5 5 5 5 5 5 5 5 5 5 5 5 5 5 5 5 5 5 5 5 5 5 5 5 5 5 5 5 5 5 5 5 5 5 </DataArray>
</Cells>
<PointData  Vectors="f_43-1"> 
<DataArray  type="Float64"  Name="f_43-1"  NumberOfComponents="3" format="ascii">9.0198735240983896e-06 4.9744412579653815e-05 0.0000000000000000e+00  -4.3532787165939901e-06 4.6701862928664850e-05 0.0000000000000000e+00  1.2150320807502058e-07 5.6073670207539128e-05 0.0000000000000000e+00  -1.7916352039850602e-05 4.5957072214779757e-05 0.0000000000000000e+00  -9.6954609639905937e-06 5.4809761381570160e-05 0.0000000000000000e+00  -1.9419001139748409e-05 6.7317017634400822e-05 0.0000000000000000e+00  -1.9633647867326230e-05 7.8034818585016698e-05 0.0000000000000000e+00  -9.5258356394344895e-06 7.4208142412183356e-05 0.0000000000000000e+00  -1.8856142736566240e-05 5.6540652576181973e-05 0.0000000000000000e+00  -1.3601855449288850e-05 8.4350694884146064e-05 0.0000000000000000e+00  -1.2640300899580957e-05 6.3186402254444680e-05 0.0000000000000000e+00  -4.9353541787216083e-06 6.4316541425779765e-05 0.0000000000000000e+00  -1.9515115607263859e-05 8.8495726512194465e-05 0.0000000000000000e+00  -5.0284179086421096e-06 5.4428059194678559e-05 0.0000000000000000e+00  -3.2155137904259176e-06 4.8572601143696638e-05 0.0000000000000000e+00  -5.1365420838528294e-06 6.5170890313435932e-05 0.0000000000000000e+00  -7.0184973760578088e-06 4.6896197694041665e-05 0.0000000000000000e+00  -5.9546574480540946e-06 4.9829271259001372e-05 0.0000000000000000e+00  -4.6755724977860257e-06 3.5315119383509043e-05 0.0000000000000000e+00  -3.3142319152752576e-06 6.0877163181871912e-05 0.0000000000000000e+00  -7.3272651721820820e-06 7.5719357227162671e-05 0.0000000000000000e+00  -5.1895066024327932e-06 7.7105713206783699e-05 0.0000000000000000e+00  -7.4522691877195688e-06 8.7019303080416546e-05 0.0000000000000000e+00  -4.0739401497273310e-06 2.6540204674909870e-05 0.0000000000000000e+00  -5.7727611414704671e-06 3.6148595179446215e-05 0.0000000000000000e+00  -1.0901663558337593e-05 3.9708379452020355e-05 0.0000000000000000e+00  -1.0555116096593840e-05 4.8020984849840322e-05 0.0000000000000000e+00  -8.6987390395169909e-06 3.5522217770333941e-05 0.0000000000000000e+00  -6.2155775519554903e-06 8.8477183535710108e-05 0.0000000000000000e+00  -1.1596342230323855e-05 7.5768947353373751e-05 0.0000000000000000e+00  -9.6749907742049857e-06 7.8381900781259595e-05 0.0000000000000000e+00  -9.5390355625932277e-06 6.6498445512729707e-05 0.0000000000000000e+00  -5.4425630888089928e-06 2.9297542060538268e-05 0.0000000000000000e+00  -3.9499211610044809e-06 1.6037895579854646e-05 0.0000000000000000e+00  -2.9416665346528088e-06 1.1546595001060977e-05 0.0000000000000000e+00  -3.3750108486613543e-06 1.5200287667110452e-05 0.0000000000000000e+00  -3.4652906201598516e-06 2.9064455070167548e-05 0.0000000000000000e+00  -4.4916087801783364e-06 4.1144097471027903e-05 0.0000000000000000e+00  -3.3257719170753352e-06 3.6333932745441153e-05 0.0000000000000000e+00  -9.6692042600669549e-06 1.1713679524983258e-04 0.0000000000000000e+00  -7.6004882272785994e-06 1.2171563538594465e-04 0.0000000000000000e+00  -9.4140427813997403e-06 1.3092601009398325e-04 0.0000000000000000e+00  -7.2587626113549668e-06 3.3892242084185685e-05 0.0000000000000000e+00  -7.3792597751264613e-06 4.0511573910742428e-05 0.0000000000000000e+00  -5.7417208423791527e-06 2.5455934608249742e-05 0.0000000000000000e+00  -4.4439587121608891e-06 2.1912964308844025e-05 0.0000000000000000e+00  -3.1534893711778994e-06 1.5569646759347473e-05 0.0000000000000000e+00  -3.6964764869972921e-06 2.0897444395575538e-05 0.0000000000000000e+00  -1.9087949669189874e-05 9.8487184017870272e-05 0.0000000000000000e+00  -1.8365902623220122e-05 1.0784344915818428e-04 0.0000000000000000e+00  -1.6215685167630877e-05 9.4009319426531138e-05 0.0000000000000000e+00  -1.2545888470753833e-05 5.0773519239781722e-05 0.0000000000000000e+00  -2.4145679897540909e-06 3.3406643125975928e-05 0.0000000000000000e+00  -2.5764600012530997e-06 2.7185264668498772e-05 0.0000000000000000e+00  -1.5560356569521874e-06 1.9155571078047378e-05 0.0000000000000000e+00  -2.0141341977907347e-06 1.8875213608483398e-05 0.0000000000000000e+00  -2.8883581942838330e-06 2.1726941109153798e-05 0.0000000000000000e+00  -1.5276538160807076e-05 8.0824711818411842e-05 0.0000000000000000e+00  -1.3035853667052637e-05 7.0020541253384286e-05 0.0000000000000000e+00  -1.3635168879048392e-05 8.4046522134055394e-05 0.0000000000000000e+00  -8.1872118857827312e-06 6.9162626528645790e-05 0.0000000000000000e+00  -7.7583253972796179e-06 5.9054570517835408e-05 0.0000000000000000e+00  -6.5622275229616807e-06 6.2748380017962156e-05 0.0000000000000000e+00  -1.0704805518235902e-05 6.2256194663012199e-05 0.0000000000000000e+00  -1.1369720262043035e-06 2.0528881619924194e-05 0.0000000000000000e+00  -1.2581914841299831e-05 4.4696238881058333e-05 0.0000000000000000e+00  -9.1494268221693610e-06 5.0337156282944251e-05 0.0000000000000000e+00  -8.5319421775926177e-06 2.9280143179603089e-05 0.0000000000000000e+00  -1.0772163151524423e-05 3.2817704892725794e-05 0.0000000000000000e+00  -8.6831999640753982e-06 4.1464356021406212e-05 0.0000000000000000e+00  -4.4704521274933453e-06 1.6225800963954959e-05 0.0000000000000000e+00  -1.0921362824435810e-05 9.9007532218968166e-05 0.0000000000000000e+00  -1.1715395510443497e-05 8.8525830064245932e-05 0.0000000000000000e+00  -9.1529652244891348e-06 8.7382992089881856e-05 0.0000000000000000e+00  -8.5041674928600536e-07 1.0636028648745354e-05 0.0000000000000000e+00  -8.6240209394456755e-06 1.0047252021018870e-04 0.0000000000000000e+00  -7.7082216353290994e-06 1.1071269944597819e-04 0.0000000000000000e+00  -1.6799949010474012e-05 5.9365507817158189e-05 0.0000000000000000e+00  -1.7243446608727584e-05 7.7753202090683529e-05 0.0000000000000000e+00  -1.7293538686107401e-05 8.7645459522066915e-05 0.0000000000000000e+00  -1.6129609757169799e-05 1.0456356646555949e-04 0.0000000000000000e+00  -1.3590631207687959e-05 6.1668429127606747e-05 0.0000000000000000e+00  -1.5971053713973218e-05 6.6457012653302143e-05 0.0000000000000000e+00  -1.4623513476887212e-05 5.7279712191320727e-05 0.0000000000000000e+00  -1.1483388176174111e-05 5.6859560051107499e-05 0.0000000000000000e+00  -1.5003789549482657e-05 7.1432601512356203e-05 0.0000000000000000e+00  -1.4042648911191554e-05 9.5326602384672839e-05 0.0000000000000000e+00  -1.4866670362412068e-05 1.1038520790986597e-04 0.0000000000000000e+00  -4.0470333699584921e-06 4.5383894984954137e-05 0.0000000000000000e+00  -4.2437411452822333e-06 1.8971807020213275e-05 0.0000000000000000e+00  -1.2863599888809257e-05 1.0066194861153403e-04 0.0000000000000000e+00  -1.4375901515102209e-05 4.8862242386901173e-05 0.0000000000000000e+00  -1.6527131940250676e-05 5.0223609923877446e-05 0.0000000000000000e+00  -7.2938745538961982e-06 2.9267005333831036e-05 0.0000000000000000e+00  -1.2744321642647553e-05 1.1067356857369579e-04 0.0000000000000000e+00  -1.0878629105169583e-05 1.0989904880882124e-04 0.0000000000000000e+00  -6.5450161537917027e-06 9.9718667816457458e-05 0.0000000000000000e+00  -6.1824700631652536e-06 2.2626588862198867e-05 0.0000000000000000e+00  -1.5031772611404345e-05 4.0683090700728954e-05 0.0000000000000000e+00  -8.6342591306077837e-06 5.5851086745244611e-05 0.0000000000000000e+00  -4.9799056764517356e-06 2.0201362938757331e-05 0.0000000000000000e+00  -1.2755934369908992e-05 3.9804874972399215e-05 0.0000000000000000e+00  -1.2470143040659738e-05 3.1462458395865074e-05 0.0000000000000000e+00  -1.7881947363754787e-05 6.9884362979510419e-05 0.0000000000000000e+00  </DataArray> 
</PointData> 
</Piece>
</UnstructuredGrid>
</VTKFile>