<?xml version="1.0"?>
<VTKFile type="UnstructuredGrid"  version="0.1"  >
<UnstructuredGrid>
<Piece  NumberOfPoints="100" NumberOfCells="168">
<Points>
<DataArray  type="Float64"  NumberOfComponents="3"  format="ascii">0.3535460261755617 0.19 0  0.3528922713220932 0.2000185703532356 0  0.3590076176283495 0.196411355804271 0  0.3473758401723931 0.1961819304478349 0  0.3535460261749672 0.21 0  0.3473758401724931 0.2038180695522752 0  0.3590471196690275 0.2036304442587945 0  0.3796850840047755 0.200000000000134 0  0.3871533862418661 0.2029084173136212 0  0.3871533862424271 0.1959250838464788 0  0.3650630746574081 0.199866017807523 0  0.3722167817676917 0.2029084173136195 0  0.372246743208829 0.1959123236376545 0  0.3274069683451451 0.2000000000000796 0  0.3348752705822316 0.202908417313609 0  0.3347912413592433 0.1959225448935183 0  0.3127789816668748 0.1998657885438805 0  0.3199386661080599 0.202908417313604 0  0.3199680582793816 0.1959123018030061 0  0.3417402379596385 0.1998691686391011 0  0.3684826306491596 0.21 0  0.3759509328862226 0.21 0  0.3311411194636928 0.21 0  0.3386094217007701 0.21 0  0.383419235123329 0.21 0  0.3908875373604028 0.21 0  0.3460777239384295 0.19 0  0.3460777239378666 0.21 0  0.3087362127527544 0.19 0  0.3012679105156187 0.19 0  0.3066757059912147 0.1964092924317024 0  0.361014328412667 0.19 0  0.3796850840055151 0.1943028057712579 0  0.3647484795312433 0.1943028057712484 0  0.3274069683455914 0.1943028057712305 0  0.3124703638713219 0.1943028057712193 0  0.3610143284120516 0.21 0  0.341834128962283 0.1943988119061815 0  0.3650260178642469 0.2054197153269502 0  0.3796850840047754 0.2056971942288865 0  0.3274069683451451 0.2056971942288527 0  0.341845332858566 0.2054104280253135 0  0.3908875373612097 0.19 0  0.3834192351240934 0.19 0  0.3759509328869369 0.19 0  0.3684826306498175 0.19 0  0.3386094217012945 0.19 0  0.3311411194641595 0.19 0  0.3236728172270245 0.19 0  0.3162045149898895 0.19 0  0.3655464778159961 0.1466879707354811 0  0.3738358170836363 0.1565872175614931 0  0.383930166391577 0.149077512173999 0  0.3418349201952718 0.1615259010424026 0  0.3538118084207602 0.155339561103512 0  0.3411001259021957 0.1498303228783227 0  0.3422976980851364 0.1814371791041619 0  0.3871183818181629 0.1813492091082587 0  0.3803545031770169 0.2233799225275491 0  0.3797734699465006 0.2157346552691785 0  0.3868315570898186 0.2161590584307608 0  0.3298647941762166 0.154951077946048 0  0.3304301052933576 0.1665413931712652 0  0.3527566348301668 0.1449455739485435 0  0.3342547353003448 0.176221364131867 0  0.3420590264647178 0.171174416987776 0  0.3125543224194783 0.1825714068210268 0  0.3272791508030818 0.1825813053721834 0  0.3572801772935104 0.2173273935815939 0  0.3722102571583817 0.2173806806735415 0  0.3647484950731696 0.1690362455853913 0  0.3534047339781095 0.1664079800909994 0  0.3646043070190422 0.1595814785132252 0  0.3573906953035386 0.1825704874733474 0  0.3721062650880237 0.1825704912629938 0  0.334769373574778 0.1838585991320073 0  0.3758459195692864 0.1665688727818971 0  0.3498118750569956 0.1834818329761723 0  0.3796850840055151 0.1834818329761566 0  0.350235271979906 0.176105405901683 0  0.3198867512741007 0.1691875758392534 0  0.3199291472277772 0.1784487091275169 0  0.3133418865444516 0.1745347694704089 0  0.3264689647572548 0.1745410252268062 0  0.3871533862426517 0.1622083790690482 0  0.30960746080092 0.166771572284543 0  0.3198495352051576 0.1594009174606977 0  0.3792616967340072 0.1761054533295981 0  0.3052148703289762 0.176135200920133 0  0.3050224637686886 0.1840003691157356 0  0.3647484799225001 0.1783360555704042 0  0.3580172190788822 0.1744509634985612 0  0.3714797435049115 0.1744509558619459 0  0.3716385577875085 0.2254972730720332 0  0.3870163828938027 0.1711802904735331 0  0.3497998287380586 0.2162289176852799 0  0.3199315490584526 0.1848904494130124 0  0.3647474910084925 0.215095947068514 0  0.3647484797606208 0.1848841839272463 0  0.364747590224077 0.2216658739063822 0  </DataArray>
</Points>
<Cells>
<DataArray  type="UInt32"  Name="connectivity"  format="ascii">0 1 2  0 1 3  4 1 5  4 1 6  7 8 9  10 11 12  13 14 15  16 17 18  13 17 18  19 14 15  7 11 12  20 21 11  22 23 14  24 25 8  0 26 3  27 4 5  28 29 30  31 0 2  7 9 32  10 12 33  13 15 34  16 18 35  13 18 34  7 12 32  4 36 6  19 15 37  20 11 38  21 11 39  10 11 38  24 8 39  22 14 40  7 8 39  7 11 39  13 17 40  13 14 40  23 14 41  19 14 41  42 43 9  44 45 12  46 47 15  48 49 18  10 2 6  1 2 6  44 12 32  43 9 32  45 12 33  47 15 34  49 18 35  48 18 34  1 5 3  19 5 3  46 15 37  10 6 38  26 46 37  23 27 41  43 44 32  45 31 33  36 20 38  21 24 39  47 48 34  49 28 35  36 6 38  10 2 33  31 2 33  16 30 35  28 30 35  26 3 37  27 5 41  19 5 41  19 3 37  50 51 52  53 54 55  26 46 56  42 43 57  58 59 60  53 61 62  54 55 63  64 62 65  53 62 65  49 28 66  47 48 67  4 36 68  20 21 69  70 71 72  31 0 73  44 45 74  46 56 75  70 76 72  26 56 77  53 54 71  43 57 78  58 69 59  79 73 77  80 81 82  80 81 83  84 51 76  64 67 75  80 85 86  87 74 78  53 61 55  80 62 86  88 66 89  79 56 65  64 56 65  70 90 91  70 90 92  58 69 93  79 71 65  84 51 52  87 57 94  27 4 95  28 29 89  46 47 75  88 66 82  64 67 83  21 24 59  0 26 77  79 73 91  70 91 71  43 44 78  54 71 72  70 92 76  28 66 89  87 74 92  51 76 72  87 76 94  47 67 75  4 68 95  21 69 59  0 73 77  79 56 77  44 74 78  61 62 86  53 71 65  49 66 96  64 56 75  87 57 78  48 67 96  36 68 97  20 69 97  31 73 98  45 74 98  24 25 60  84 76 94  50 54 72  50 51 72  88 85 82  24 59 60  81 66 82  80 85 82  81 67 83  50 54 63  79 91 71  99 69 93  64 62 83  80 62 83  87 92 76  90 73 91  90 74 92  81 66 96  81 67 96  48 49 96  99 68 97  36 20 97  99 69 97  45 31 98  90 73 98  90 74 98  </DataArray>
<DataArray  type="UInt32"  Name="offsets"  format="ascii">3 6 9 12 15 18 21 24 27 30 33 36 39 42 45 48 51 54 57 60 63 66 69 72 75 78 81 84 87 90 93 96 99 102 105 108 111 114 117 120 123 126 129 132 135 138 141 144 147 150 153 156 159 162 165 168 171 174 177 180 183 186 189 192 195 198 201 204 207 210 213 216 219 222 225 228 231 234 237 240 243 246 249 252 255 258 261 264 267 270 273 276 279 282 285 288 291 294 297 300 303 306 309 312 315 318 321 324 327 330 333 336 339 342 345 348 351 354 357 360 363 366 369 372 375 378 381 384 387 390 393 396 399 402 405 408 411 414 417 420 423 426 429 432 435 438 441 444 447 450 453 456 459 462 465 468 471 474 477 480 483 486 489 492 495 498 501 504 </DataArray>
<DataArray  type="UInt8"  Name="types"  format="ascii">5 5 5 5 5 5 5 5 5 5 5 5 5 5 5 5 5 5 5 5 5 5 5 5 5 5 5 5 5 5 5 5 5 5 5 5 5 5 5 5 5 5 5 5 5 5 5 5 5 5 5 5 5 5 5 5 5 5 5 5 5 5 5 5 5 5 5 5 5 5 5 5 5 5 5 5 5 5 5 5 5 5 5 5 5 5 5 5 5 5 5 5 5 5 5 5 5 5 5 5 5 5 5 5 5 5 5 5 5 5 5 5 5 5 5 5 5 5 5 5 5 5 5 5 5 5 5 5 5 5 5 5 5 5 5 5 5 5 5 5 5 5 5 5 5 5 5 5 5 5 5 5 5 5 5 5 5 5 5 5 5 5 5 5 5 5 5 5 </DataArray>
</Cells>
<PointData  Vectors="f_43-1"> 
<DataArray  type="Float64"  Name="f_43-1"  NumberOfComponents="3" format="ascii">2.5852808527003138e-06 -3.7918909317897359e-05 0.0000000000000000e+00  1.0073314560681569e-05 -4.0941998668836402e-05 0.0000000000000000e+00  7.8037356208187653e-06 -4.4401395708067358e-05 0.0000000000000000e+00  6.7869721325732640e-06 -3.5427613995436570e-05 0.0000000000000000e+00  1.7765227376546570e-05 -4.5329276884681936e-05 0.0000000000000000e+00  1.2293496838395365e-05 -3.8276234529089912e-05 0.0000000000000000e+00  1.3493674966633654e-05 -4.7087791313017538e-05 0.0000000000000000e+00  1.2342199326610359e-05 -6.3246604759937329e-05 0.0000000000000000e+00  1.5572519353818719e-05 -7.1106736738427148e-05 0.0000000000000000e+00  9.1370916353606755e-06 -6.8670716929421691e-05 0.0000000000000000e+00  1.1047277984862478e-05 -5.0565393467343364e-05 0.0000000000000000e+00  1.4249588411228523e-05 -5.7727376607624445e-05 0.0000000000000000e+00  8.2715990718949024e-06 -5.5246337127611742e-05 0.0000000000000000e+00  7.5116090722900725e-06 -2.3524407651486874e-05 0.0000000000000000e+00  1.0158754878115317e-05 -2.9309925709633040e-05 0.0000000000000000e+00  5.6639689804586667e-06 -2.6637695224673345e-05 0.0000000000000000e+00  5.8923495865794412e-06 -1.5457170292140762e-05 0.0000000000000000e+00  8.2986086019488114e-06 -2.0363841052672983e-05 0.0000000000000000e+00  4.5180338878309380e-06 -1.7742961935259851e-05 0.0000000000000000e+00  8.8892952071841668e-06 -3.2762318789440418e-05 0.0000000000000000e+00  1.9901032897893185e-05 -5.7268119848217777e-05 0.0000000000000000e+00  2.0870744630206875e-05 -6.3659034670623572e-05 0.0000000000000000e+00  1.4139282163584726e-05 -2.9818213781059446e-05 0.0000000000000000e+00  1.5397515407538157e-05 -3.4643786603643922e-05 0.0000000000000000e+00  2.1771879306155888e-05 -7.0306140286085158e-05 0.0000000000000000e+00  2.2602118322648586e-05 -7.7188599291692328e-05 0.0000000000000000e+00  2.3048981159768693e-06 -3.2346219658348685e-05 0.0000000000000000e+00  1.6608826688928908e-05 -3.9820924835238795e-05 0.0000000000000000e+00  9.3902867227152590e-07 -1.0018999601401623e-05 0.0000000000000000e+00  6.9890894932792103e-07 -6.7798928844098700e-06 0.0000000000000000e+00  3.7116810360404761e-06 -1.1298268883545057e-05 0.0000000000000000e+00  2.8575925025529157e-06 -4.3815487896418992e-05 0.0000000000000000e+00  7.2899469639740630e-06 -6.1269681423561836e-05 0.0000000000000000e+00  6.4861808645204135e-06 -4.8332699174429206e-05 0.0000000000000000e+00  4.1422596262915284e-06 -2.1439739943376190e-05 0.0000000000000000e+00  3.1561050000334337e-06 -1.3270942253289901e-05 0.0000000000000000e+00  1.8864819612759258e-05 -5.1151203766150199e-05 0.0000000000000000e+00  5.1511425725212018e-06 -3.0840282880162501e-05 0.0000000000000000e+00  1.5615401513431791e-05 -5.2609599604089508e-05 0.0000000000000000e+00  1.7437881809946873e-05 -6.5320590401185262e-05 0.0000000000000000e+00  1.0904033590942354e-05 -2.5756834425474309e-05 0.0000000000000000e+00  1.2724227074339670e-05 -3.4974865425840692e-05 0.0000000000000000e+00  3.8173164494158819e-06 -7.0231101486507890e-05 0.0000000000000000e+00  3.6034129090060917e-06 -6.3244241732290631e-05 0.0000000000000000e+00  3.3701438832516571e-06 -5.6499206039845574e-05 0.0000000000000000e+00  3.1205597057243983e-06 -5.0016204511686811e-05 0.0000000000000000e+00  2.0219197280892155e-06 -2.7117137554972520e-05 0.0000000000000000e+00  1.7403780485159285e-06 -2.2252065334618561e-05 0.0000000000000000e+00  1.4632666227497424e-06 -1.7769565017096040e-05 0.0000000000000000e+00  1.1951308776317387e-06 -1.3686786694209704e-05 0.0000000000000000e+00  2.0510128028073278e-06 -4.4126686393962431e-05 0.0000000000000000e+00  2.4146022607804607e-06 -5.0925529259704596e-05 0.0000000000000000e+00  2.4115776958236997e-06 -5.5895811990009321e-05 0.0000000000000000e+00  1.7863081101902687e-06 -3.1770539769846660e-05 0.0000000000000000e+00  1.9737869791526958e-06 -3.8368923944821614e-05 0.0000000000000000e+00  1.6265353943973629e-06 -3.1227828449907997e-05 0.0000000000000000e+00  2.0514512305826008e-06 -3.0845499376290855e-05 0.0000000000000000e+00  3.4059467267629439e-06 -6.5332336183502603e-05 0.0000000000000000e+00  1.9238622424196634e-05 -6.5637911573006432e-05 0.0000000000000000e+00  2.0387441993887233e-05 -6.6324102327900924e-05 0.0000000000000000e+00  2.1094548604084068e-05 -7.2352887827353493e-05 0.0000000000000000e+00  1.4398066942848480e-06 -2.5778817141883397e-05 0.0000000000000000e+00  1.5479594442254104e-06 -2.5399402201696290e-05 0.0000000000000000e+00  1.7874443244269233e-06 -3.6851639251596566e-05 0.0000000000000000e+00  1.7380586099092846e-06 -2.6499597348326533e-05 0.0000000000000000e+00  1.9132486548933757e-06 -3.1569630187144820e-05 0.0000000000000000e+00  1.0895355053216828e-06 -1.3871288336230593e-05 0.0000000000000000e+00  1.5613703539292772e-06 -2.1493390902922491e-05 0.0000000000000000e+00  1.7313486246910549e-05 -4.8326365059179634e-05 0.0000000000000000e+00  1.9235585856080999e-05 -5.9864982595445203e-05 0.0000000000000000e+00  2.4927592513581376e-06 -4.6324427342751767e-05 0.0000000000000000e+00  2.1498758425283561e-06 -3.8655944021104935e-05 0.0000000000000000e+00  2.2883965038794376e-06 -4.5341316510124525e-05 0.0000000000000000e+00  2.5695140216967202e-06 -4.1313931488362249e-05 0.0000000000000000e+00  3.0307221290950580e-06 -5.2800315192656578e-05 0.0000000000000000e+00  1.8232638984492352e-06 -2.5709581884046190e-05 0.0000000000000000e+00  2.7000459664301619e-06 -5.3956977088873891e-05 0.0000000000000000e+00  2.3342681832175008e-06 -3.5758304794715290e-05 0.0000000000000000e+00  3.2778882519762277e-06 -5.9214398072285454e-05 0.0000000000000000e+00  2.2247735409687859e-06 -3.6509617575958904e-05 0.0000000000000000e+00  1.2859740682170010e-06 -1.9881151880542077e-05 0.0000000000000000e+00  1.3137268406254114e-06 -1.8364965971133034e-05 0.0000000000000000e+00  1.1200563033092990e-06 -1.5989134156771506e-05 0.0000000000000000e+00  1.4927960190359758e-06 -2.2404882000848893e-05 0.0000000000000000e+00  2.8123909038158707e-06 -6.1401437298703762e-05 0.0000000000000000e+00  1.0244337657799569e-06 -1.5741829537588804e-05 0.0000000000000000e+00  1.2447515872287872e-06 -2.0958789901918209e-05 0.0000000000000000e+00  3.0428953181127116e-06 -5.7949447147332484e-05 0.0000000000000000e+00  8.9917670790715312e-07 -1.2203470230544740e-05 0.0000000000000000e+00  8.5724945914784926e-07 -1.0155771806462852e-05 0.0000000000000000e+00  2.7041070590646781e-06 -4.6827635512044096e-05 0.0000000000000000e+00  2.4241444126707662e-06 -4.1856857047318409e-05 0.0000000000000000e+00  2.7963050264591385e-06 -5.1678992328117906e-05 0.0000000000000000e+00  1.7967864424218829e-05 -5.8541242260550597e-05 0.0000000000000000e+00  3.0749566844380170e-06 -6.3307561822912610e-05 0.0000000000000000e+00  1.6399003825917807e-05 -4.2912041242032892e-05 0.0000000000000000e+00  1.3244657400414606e-06 -1.6977412945282881e-05 0.0000000000000000e+00  1.8631379719866964e-05 -5.4058037282869300e-05 0.0000000000000000e+00  2.8618501182713582e-06 -4.6940008051995378e-05 0.0000000000000000e+00  1.7693997164624027e-05 -5.3725291569452547e-05 0.0000000000000000e+00  </DataArray> 
</PointData> 
</Piece>
</UnstructuredGrid>
</VTKFile>