<?xml version="1.0"?>
<VTKFile type="UnstructuredGrid"  version="0.1"  >
<UnstructuredGrid>
<Piece  NumberOfPoints="100" NumberOfCells="168">
<Points>
<DataArray  type="Float64"  NumberOfComponents="3"  format="ascii">0.3535460261755617 0.19 0  0.3528922713220932 0.2000185703532356 0  0.3590076176283495 0.196411355804271 0  0.3473758401723931 0.1961819304478349 0  0.3535460261749672 0.21 0  0.3473758401724931 0.2038180695522752 0  0.3590471196690275 0.2036304442587945 0  0.3796850840047755 0.200000000000134 0  0.3871533862418661 0.2029084173136212 0  0.3871533862424271 0.1959250838464788 0  0.3650630746574081 0.199866017807523 0  0.3722167817676917 0.2029084173136195 0  0.372246743208829 0.1959123236376545 0  0.3274069683451451 0.2000000000000796 0  0.3348752705822316 0.202908417313609 0  0.3347912413592433 0.1959225448935183 0  0.3127789816668748 0.1998657885438805 0  0.3199386661080599 0.202908417313604 0  0.3199680582793816 0.1959123018030061 0  0.3417402379596385 0.1998691686391011 0  0.3684826306491596 0.21 0  0.3759509328862226 0.21 0  0.3311411194636928 0.21 0  0.3386094217007701 0.21 0  0.383419235123329 0.21 0  0.3908875373604028 0.21 0  0.3460777239384295 0.19 0  0.3460777239378666 0.21 0  0.3087362127527544 0.19 0  0.3012679105156187 0.19 0  0.3066757059912147 0.1964092924317024 0  0.361014328412667 0.19 0  0.3796850840055151 0.1943028057712579 0  0.3647484795312433 0.1943028057712484 0  0.3274069683455914 0.1943028057712305 0  0.3124703638713219 0.1943028057712193 0  0.3610143284120516 0.21 0  0.341834128962283 0.1943988119061815 0  0.3650260178642469 0.2054197153269502 0  0.3796850840047754 0.2056971942288865 0  0.3274069683451451 0.2056971942288527 0  0.341845332858566 0.2054104280253135 0  0.3908875373612097 0.19 0  0.3834192351240934 0.19 0  0.3759509328869369 0.19 0  0.3684826306498175 0.19 0  0.3386094217012945 0.19 0  0.3311411194641595 0.19 0  0.3236728172270245 0.19 0  0.3162045149898895 0.19 0  0.3655464778159961 0.1466879707354811 0  0.3738358170836363 0.1565872175614931 0  0.383930166391577 0.149077512173999 0  0.3418349201952718 0.1615259010424026 0  0.3538118084207602 0.155339561103512 0  0.3411001259021957 0.1498303228783227 0  0.3422976980851364 0.1814371791041619 0  0.3871183818181629 0.1813492091082587 0  0.3803545031770169 0.2233799225275491 0  0.3797734699465006 0.2157346552691785 0  0.3868315570898186 0.2161590584307608 0  0.3298647941762166 0.154951077946048 0  0.3304301052933576 0.1665413931712652 0  0.3527566348301668 0.1449455739485435 0  0.3342547353003448 0.176221364131867 0  0.3420590264647178 0.171174416987776 0  0.3125543224194783 0.1825714068210268 0  0.3272791508030818 0.1825813053721834 0  0.3572801772935104 0.2173273935815939 0  0.3722102571583817 0.2173806806735415 0  0.3647484950731696 0.1690362455853913 0  0.3534047339781095 0.1664079800909994 0  0.3646043070190422 0.1595814785132252 0  0.3573906953035386 0.1825704874733474 0  0.3721062650880237 0.1825704912629938 0  0.334769373574778 0.1838585991320073 0  0.3758459195692864 0.1665688727818971 0  0.3498118750569956 0.1834818329761723 0  0.3796850840055151 0.1834818329761566 0  0.350235271979906 0.176105405901683 0  0.3198867512741007 0.1691875758392534 0  0.3199291472277772 0.1784487091275169 0  0.3133418865444516 0.1745347694704089 0  0.3264689647572548 0.1745410252268062 0  0.3871533862426517 0.1622083790690482 0  0.30960746080092 0.166771572284543 0  0.3198495352051576 0.1594009174606977 0  0.3792616967340072 0.1761054533295981 0  0.3052148703289762 0.176135200920133 0  0.3050224637686886 0.1840003691157356 0  0.3647484799225001 0.1783360555704042 0  0.3580172190788822 0.1744509634985612 0  0.3714797435049115 0.1744509558619459 0  0.3716385577875085 0.2254972730720332 0  0.3870163828938027 0.1711802904735331 0  0.3497998287380586 0.2162289176852799 0  0.3199315490584526 0.1848904494130124 0  0.3647474910084925 0.215095947068514 0  0.3647484797606208 0.1848841839272463 0  0.364747590224077 0.2216658739063822 0  </DataArray>
</Points>
<Cells>
<DataArray  type="UInt32"  Name="connectivity"  format="ascii">0 1 2  0 1 3  4 1 5  4 1 6  7 8 9  10 11 12  13 14 15  16 17 18  13 17 18  19 14 15  7 11 12  20 21 11  22 23 14  24 25 8  0 26 3  27 4 5  28 29 30  31 0 2  7 9 32  10 12 33  13 15 34  16 18 35  13 18 34  7 12 32  4 36 6  19 15 37  20 11 38  21 11 39  10 11 38  24 8 39  22 14 40  7 8 39  7 11 39  13 17 40  13 14 40  23 14 41  19 14 41  42 43 9  44 45 12  46 47 15  48 49 18  10 2 6  1 2 6  44 12 32  43 9 32  45 12 33  47 15 34  49 18 35  48 18 34  1 5 3  19 5 3  46 15 37  10 6 38  26 46 37  23 27 41  43 44 32  45 31 33  36 20 38  21 24 39  47 48 34  49 28 35  36 6 38  10 2 33  31 2 33  16 30 35  28 30 35  26 3 37  27 5 41  19 5 41  19 3 37  50 51 52  53 54 55  26 46 56  42 43 57  58 59 60  53 61 62  54 55 63  64 62 65  53 62 65  49 28 66  47 48 67  4 36 68  20 21 69  70 71 72  31 0 73  44 45 74  46 56 75  70 76 72  26 56 77  53 54 71  43 57 78  58 69 59  79 73 77  80 81 82  80 81 83  84 51 76  64 67 75  80 85 86  87 74 78  53 61 55  80 62 86  88 66 89  79 56 65  64 56 65  70 90 91  70 90 92  58 69 93  79 71 65  84 51 52  87 57 94  27 4 95  28 29 89  46 47 75  88 66 82  64 67 83  21 24 59  0 26 77  79 73 91  70 91 71  43 44 78  54 71 72  70 92 76  28 66 89  87 74 92  51 76 72  87 76 94  47 67 75  4 68 95  21 69 59  0 73 77  79 56 77  44 74 78  61 62 86  53 71 65  49 66 96  64 56 75  87 57 78  48 67 96  36 68 97  20 69 97  31 73 98  45 74 98  24 25 60  84 76 94  50 54 72  50 51 72  88 85 82  24 59 60  81 66 82  80 85 82  81 67 83  50 54 63  79 91 71  99 69 93  64 62 83  80 62 83  87 92 76  90 73 91  90 74 92  81 66 96  81 67 96  48 49 96  99 68 97  36 20 97  99 69 97  45 31 98  90 73 98  90 74 98  </DataArray>
<DataArray  type="UInt32"  Name="offsets"  format="ascii">3 6 9 12 15 18 21 24 27 30 33 36 39 42 45 48 51 54 57 60 63 66 69 72 75 78 81 84 87 90 93 96 99 102 105 108 111 114 117 120 123 126 129 132 135 138 141 144 147 150 153 156 159 162 165 168 171 174 177 180 183 186 189 192 195 198 201 204 207 210 213 216 219 222 225 228 231 234 237 240 243 246 249 252 255 258 261 264 267 270 273 276 279 282 285 288 291 294 297 300 303 306 309 312 315 318 321 324 327 330 333 336 339 342 345 348 351 354 357 360 363 366 369 372 375 378 381 384 387 390 393 396 399 402 405 408 411 414 417 420 423 426 429 432 435 438 441 444 447 450 453 456 459 462 465 468 471 474 477 480 483 486 489 492 495 498 501 504 </DataArray>
<DataArray  type="UInt8"  Name="types"  format="ascii">5 5 5 5 5 5 5 5 5 5 5 5 5 5 5 5 5 5 5 5 5 5 5 5 5 5 5 5 5 5 5 5 5 5 5 5 5 5 5 5 5 5 5 5 5 5 5 5 5 5 5 5 5 5 5 5 5 5 5 5 5 5 5 5 5 5 5 5 5 5 5 5 5 5 5 5 5 5 5 5 5 5 5 5 5 5 5 5 5 5 5 5 5 5 5 5 5 5 5 5 5 5 5 5 5 5 5 5 5 5 5 5 5 5 5 5 5 5 5 5 5 5 5 5 5 5 5 5 5 5 5 5 5 5 5 5 5 5 5 5 5 5 5 5 5 5 5 5 5 5 5 5 5 5 5 5 5 5 5 5 5 5 5 5 5 5 5 5 </DataArray>
</Cells>
<PointData  Vectors="f_43-1"> 
<DataArray  type="Float64"  Name="f_43-1"  NumberOfComponents="3" format="ascii">7.2653660701361994e-06 1.6886805080060284e-04 0.0000000000000000e+00  -1.1373139804739667e-05 1.6617347257278549e-04 0.0000000000000000e+00  -5.3030610534621219e-06 1.7834867603142704e-04 0.0000000000000000e+00  -3.6515190584804087e-06 1.5596439422058153e-04 0.0000000000000000e+00  -3.0152681472147120e-05 1.6519185792122332e-04 0.0000000000000000e+00  -1.8330056661777520e-05 1.5461999811365067e-04 0.0000000000000000e+00  -1.8163771339244045e-05 1.7704147274570113e-04 0.0000000000000000e+00  -1.2479236232670639e-05 2.1203533956873371e-04 0.0000000000000000e+00  -1.6257651594636415e-05 2.2152137158089165e-04 0.0000000000000000e+00  -7.5144172273529615e-06 2.2307485787572608e-04 0.0000000000000000e+00  -1.1756698434800813e-05 1.8861702648516511e-04 0.0000000000000000e+00  -1.6809855949766378e-05 1.9993136436880011e-04 0.0000000000000000e+00  -5.8896905986239953e-06 2.0139283445828651e-04 0.0000000000000000e+00  -9.3807686181642731e-06 1.1402843299079333e-04 0.0000000000000000e+00  -1.5868059100695503e-05 1.2924363091335714e-04 0.0000000000000000e+00  -1.8503092064806269e-06 1.3018872784289009e-04 0.0000000000000000e+00  -7.6789990919822989e-06 8.3473805792241368e-05 0.0000000000000000e+00  -1.4483776216588481e-05 9.7899774497245843e-05 0.0000000000000000e+00  -5.0617871075465847e-07 9.9003904908816960e-05 0.0000000000000000e+00  -1.0319480229753644e-05 1.4396293303124637e-04 0.0000000000000000e+00  -2.8612886244476341e-05 1.9182293673017690e-04 0.0000000000000000e+00  -2.7442337031023426e-05 2.0365357645969192e-04 0.0000000000000000e+00  -3.0145079804282256e-05 1.2026686975385385e-04 0.0000000000000000e+00  -3.0489368822997278e-05 1.3565489680371519e-04 0.0000000000000000e+00  -2.6037512750669846e-05 2.1433107147374170e-04 0.0000000000000000e+00  -2.4435760323173161e-05 2.2374831860679268e-04 0.0000000000000000e+00  8.5711409998440092e-06 1.5419203612992904e-04 0.0000000000000000e+00  -3.0486367883015090e-05 1.5070191463375138e-04 0.0000000000000000e+00  1.1767129410409820e-05 7.7002963603585602e-05 0.0000000000000000e+00  1.1552444351454997e-05 6.2445178920696865e-05 0.0000000000000000e+00  -5.3752354894138862e-07 7.1668785066015267e-05 0.0000000000000000e+00  5.8185811081288508e-06 1.8282437604143339e-04 0.0000000000000000e+00  -4.4288789677166336e-06 2.1306630565559495e-04 0.0000000000000000e+00  -2.3220631074517463e-06 1.8899814471918936e-04 0.0000000000000000e+00  2.1241330285304121e-06 1.1491214275409040e-04 0.0000000000000000e+00  3.1954107616119058e-06 8.3726897433379242e-05 0.0000000000000000e+00  -2.9528524538308604e-05 1.7895044683901787e-04 0.0000000000000000e+00  4.4613409256274720e-07 1.4500918255844813e-04 0.0000000000000000e+00  -2.1167257131246900e-05 1.8728641967459493e-04 0.0000000000000000e+00  -2.0563147563047261e-05 2.1055804400123764e-04 0.0000000000000000e+00  -2.0922533913847013e-05 1.1315660085346216e-04 0.0000000000000000e+00  -2.1273403409016191e-05 1.4317130208559229e-04 0.0000000000000000e+00  -9.5247041224337185e-07 2.2848395691482253e-04 0.0000000000000000e+00  8.2392919604146267e-07 2.1884517379406736e-04 0.0000000000000000e+00  2.5652263448637105e-06 2.0795094599256132e-04 0.0000000000000000e+00  4.2389667047262451e-06 1.9590344071880451e-04 0.0000000000000000e+00  9.6894494605122112e-06 1.3897325069687843e-04 0.0000000000000000e+00  1.0591938178121954e-05 1.2342102372759714e-04 0.0000000000000000e+00  1.1257908657643100e-05 1.0775115000694547e-04 0.0000000000000000e+00  1.1657268074893217e-05 9.2197313394548741e-05 0.0000000000000000e+00  1.2364284706086250e-06 1.2722055371827364e-04 0.0000000000000000e+00  7.7445329051236231e-07 1.4836485491359595e-04 0.0000000000000000e+00  -7.7650349361764453e-07 1.4637866101951477e-04 0.0000000000000000e+00  4.7955645903938525e-06 1.1652782599970218e-04 0.0000000000000000e+00  3.0362102099147502e-06 1.2509456447172584e-04 0.0000000000000000e+00  3.6348227857911676e-06 1.0503366001724094e-04 0.0000000000000000e+00  7.5777587279905385e-06 1.3713295972254369e-04 0.0000000000000000e+00  -3.6544304504145120e-07 2.0528288019667126e-04 0.0000000000000000e+00  -2.2625007971637904e-05 1.8442292279849238e-04 0.0000000000000000e+00  -2.4935156797893948e-05 1.9787426254681885e-04 0.0000000000000000e+00  -2.3543525491501097e-05 2.0583193679113941e-04 0.0000000000000000e+00  4.8571105640947883e-06 9.5712488920271329e-05 0.0000000000000000e+00  6.3228282840443781e-06 1.0466035403919880e-04 0.0000000000000000e+00  2.3316172604241341e-06 1.1281735100029665e-04 0.0000000000000000e+00  7.5551997017826582e-06 1.1816977474871951e-04 0.0000000000000000e+00  6.0123432418798839e-06 1.2617063297283443e-04 0.0000000000000000e+00  9.9651538636688121e-06 8.3186994018002945e-05 0.0000000000000000e+00  9.3257992746986059e-06 1.1047053277681208e-04 0.0000000000000000e+00  -2.7119393673553272e-05 1.6138594915162801e-04 0.0000000000000000e+00  -2.5564672812642484e-05 1.8442994001869548e-04 0.0000000000000000e+00  2.8638466492983154e-06 1.5600665562171486e-04 0.0000000000000000e+00  4.1381411255147794e-06 1.3739715475773640e-04 0.0000000000000000e+00  2.1422127167010358e-06 1.4269535362961100e-04 0.0000000000000000e+00  5.4902997731205308e-06 1.6487110380551104e-04 0.0000000000000000e+00  2.7641629835606132e-06 1.8800644939161501e-04 0.0000000000000000e+00  8.9021543270846187e-06 1.2558010833654644e-04 0.0000000000000000e+00  1.0022395854315964e-06 1.6563251486932526e-04 0.0000000000000000e+00  6.8559781840230094e-06 1.5299547586841142e-04 0.0000000000000000e+00  1.2857886755684446e-06 2.0031011944849839e-04 0.0000000000000000e+00  5.7163857515498384e-06 1.4446971021253328e-04 0.0000000000000000e+00  7.2482625084201102e-06 9.0461250313510303e-05 0.0000000000000000e+00  8.9115568483010869e-06 9.4888022577026352e-05 0.0000000000000000e+00  8.3257654319752937e-06 8.2342673233008369e-05 0.0000000000000000e+00  7.8503720539864025e-06 1.0388557538619149e-04 0.0000000000000000e+00  -9.2026891735584850e-07 1.6977349709365158e-04 0.0000000000000000e+00  7.0130544921262159e-06 7.4443738947973983e-05 0.0000000000000000e+00  5.8103458738159773e-06 8.5561354616567057e-05 0.0000000000000000e+00  9.4420480091525536e-07 1.8586023337920936e-04 0.0000000000000000e+00  8.5814281666937941e-06 6.9670698352877834e-05 0.0000000000000000e+00  1.0228054081879236e-05 6.9816163402373213e-05 0.0000000000000000e+00  3.7314416541950870e-06 1.7004097766535448e-04 0.0000000000000000e+00  4.3988158148783885e-06 1.5431331054941856e-04 0.0000000000000000e+00  2.2273869571441930e-06 1.7316503161134906e-04 0.0000000000000000e+00  -2.3149447716711068e-05 1.7006954020309589e-04 0.0000000000000000e+00  -6.6429561465722293e-07 1.8546465174165420e-04 0.0000000000000000e+00  -2.7911565135553566e-05 1.5002407337268449e-04 0.0000000000000000e+00  1.0274554144347447e-05 9.7761414635159474e-05 0.0000000000000000e+00  -2.7246412910942576e-05 1.7697599664198523e-04 0.0000000000000000e+00  4.4346510747428532e-06 1.8068123350212150e-04 0.0000000000000000e+00  -2.5032886299014449e-05 1.6661387783248609e-04 0.0000000000000000e+00  </DataArray> 
</PointData> 
</Piece>
</UnstructuredGrid>
</VTKFile>