<?xml version="1.0"?>
<VTKFile type="UnstructuredGrid"  version="0.1"  >
<UnstructuredGrid>
<Piece  NumberOfPoints="100" NumberOfCells="168">
<Points>
<DataArray  type="Float64"  NumberOfComponents="3"  format="ascii">0.3535460261755617 0.19 0  0.3528922713220932 0.2000185703532356 0  0.3590076176283495 0.196411355804271 0  0.3473758401723931 0.1961819304478349 0  0.3535460261749672 0.21 0  0.3473758401724931 0.2038180695522752 0  0.3590471196690275 0.2036304442587945 0  0.3796850840047755 0.200000000000134 0  0.3871533862418661 0.2029084173136212 0  0.3871533862424271 0.1959250838464788 0  0.3650630746574081 0.199866017807523 0  0.3722167817676917 0.2029084173136195 0  0.372246743208829 0.1959123236376545 0  0.3274069683451451 0.2000000000000796 0  0.3348752705822316 0.202908417313609 0  0.3347912413592433 0.1959225448935183 0  0.3127789816668748 0.1998657885438805 0  0.3199386661080599 0.202908417313604 0  0.3199680582793816 0.1959123018030061 0  0.3417402379596385 0.1998691686391011 0  0.3684826306491596 0.21 0  0.3759509328862226 0.21 0  0.3311411194636928 0.21 0  0.3386094217007701 0.21 0  0.383419235123329 0.21 0  0.3908875373604028 0.21 0  0.3460777239384295 0.19 0  0.3460777239378666 0.21 0  0.3087362127527544 0.19 0  0.3012679105156187 0.19 0  0.3066757059912147 0.1964092924317024 0  0.361014328412667 0.19 0  0.3796850840055151 0.1943028057712579 0  0.3647484795312433 0.1943028057712484 0  0.3274069683455914 0.1943028057712305 0  0.3124703638713219 0.1943028057712193 0  0.3610143284120516 0.21 0  0.341834128962283 0.1943988119061815 0  0.3650260178642469 0.2054197153269502 0  0.3796850840047754 0.2056971942288865 0  0.3274069683451451 0.2056971942288527 0  0.341845332858566 0.2054104280253135 0  0.3908875373612097 0.19 0  0.3834192351240934 0.19 0  0.3759509328869369 0.19 0  0.3684826306498175 0.19 0  0.3386094217012945 0.19 0  0.3311411194641595 0.19 0  0.3236728172270245 0.19 0  0.3162045149898895 0.19 0  0.3655464778159961 0.1466879707354811 0  0.3738358170836363 0.1565872175614931 0  0.383930166391577 0.149077512173999 0  0.3418349201952718 0.1615259010424026 0  0.3538118084207602 0.155339561103512 0  0.3411001259021957 0.1498303228783227 0  0.3422976980851364 0.1814371791041619 0  0.3871183818181629 0.1813492091082587 0  0.3803545031770169 0.2233799225275491 0  0.3797734699465006 0.2157346552691785 0  0.3868315570898186 0.2161590584307608 0  0.3298647941762166 0.154951077946048 0  0.3304301052933576 0.1665413931712652 0  0.3527566348301668 0.1449455739485435 0  0.3342547353003448 0.176221364131867 0  0.3420590264647178 0.171174416987776 0  0.3125543224194783 0.1825714068210268 0  0.3272791508030818 0.1825813053721834 0  0.3572801772935104 0.2173273935815939 0  0.3722102571583817 0.2173806806735415 0  0.3647484950731696 0.1690362455853913 0  0.3534047339781095 0.1664079800909994 0  0.3646043070190422 0.1595814785132252 0  0.3573906953035386 0.1825704874733474 0  0.3721062650880237 0.1825704912629938 0  0.334769373574778 0.1838585991320073 0  0.3758459195692864 0.1665688727818971 0  0.3498118750569956 0.1834818329761723 0  0.3796850840055151 0.1834818329761566 0  0.350235271979906 0.176105405901683 0  0.3198867512741007 0.1691875758392534 0  0.3199291472277772 0.1784487091275169 0  0.3133418865444516 0.1745347694704089 0  0.3264689647572548 0.1745410252268062 0  0.3871533862426517 0.1622083790690482 0  0.30960746080092 0.166771572284543 0  0.3198495352051576 0.1594009174606977 0  0.3792616967340072 0.1761054533295981 0  0.3052148703289762 0.176135200920133 0  0.3050224637686886 0.1840003691157356 0  0.3647484799225001 0.1783360555704042 0  0.3580172190788822 0.1744509634985612 0  0.3714797435049115 0.1744509558619459 0  0.3716385577875085 0.2254972730720332 0  0.3870163828938027 0.1711802904735331 0  0.3497998287380586 0.2162289176852799 0  0.3199315490584526 0.1848904494130124 0  0.3647474910084925 0.215095947068514 0  0.3647484797606208 0.1848841839272463 0  0.364747590224077 0.2216658739063822 0  </DataArray>
</Points>
<Cells>
<DataArray  type="UInt32"  Name="connectivity"  format="ascii">0 1 2  0 1 3  4 1 5  4 1 6  7 8 9  10 11 12  13 14 15  16 17 18  13 17 18  19 14 15  7 11 12  20 21 11  22 23 14  24 25 8  0 26 3  27 4 5  28 29 30  31 0 2  7 9 32  10 12 33  13 15 34  16 18 35  13 18 34  7 12 32  4 36 6  19 15 37  20 11 38  21 11 39  10 11 38  24 8 39  22 14 40  7 8 39  7 11 39  13 17 40  13 14 40  23 14 41  19 14 41  42 43 9  44 45 12  46 47 15  48 49 18  10 2 6  1 2 6  44 12 32  43 9 32  45 12 33  47 15 34  49 18 35  48 18 34  1 5 3  19 5 3  46 15 37  10 6 38  26 46 37  23 27 41  43 44 32  45 31 33  36 20 38  21 24 39  47 48 34  49 28 35  36 6 38  10 2 33  31 2 33  16 30 35  28 30 35  26 3 37  27 5 41  19 5 41  19 3 37  50 51 52  53 54 55  26 46 56  42 43 57  58 59 60  53 61 62  54 55 63  64 62 65  53 62 65  49 28 66  47 48 67  4 36 68  20 21 69  70 71 72  31 0 73  44 45 74  46 56 75  70 76 72  26 56 77  53 54 71  43 57 78  58 69 59  79 73 77  80 81 82  80 81 83  84 51 76  64 67 75  80 85 86  87 74 78  53 61 55  80 62 86  88 66 89  79 56 65  64 56 65  70 90 91  70 90 92  58 69 93  79 71 65  84 51 52  87 57 94  27 4 95  28 29 89  46 47 75  88 66 82  64 67 83  21 24 59  0 26 77  79 73 91  70 91 71  43 44 78  54 71 72  70 92 76  28 66 89  87 74 92  51 76 72  87 76 94  47 67 75  4 68 95  21 69 59  0 73 77  79 56 77  44 74 78  61 62 86  53 71 65  49 66 96  64 56 75  87 57 78  48 67 96  36 68 97  20 69 97  31 73 98  45 74 98  24 25 60  84 76 94  50 54 72  50 51 72  88 85 82  24 59 60  81 66 82  80 85 82  81 67 83  50 54 63  79 91 71  99 69 93  64 62 83  80 62 83  87 92 76  90 73 91  90 74 92  81 66 96  81 67 96  48 49 96  99 68 97  36 20 97  99 69 97  45 31 98  90 73 98  90 74 98  </DataArray>
<DataArray  type="UInt32"  Name="offsets"  format="ascii">3 6 9 12 15 18 21 24 27 30 33 36 39 42 45 48 51 54 57 60 63 66 69 72 75 78 81 84 87 90 93 96 99 102 105 108 111 114 117 120 123 126 129 132 135 138 141 144 147 150 153 156 159 162 165 168 171 174 177 180 183 186 189 192 195 198 201 204 207 210 213 216 219 222 225 228 231 234 237 240 243 246 249 252 255 258 261 264 267 270 273 276 279 282 285 288 291 294 297 300 303 306 309 312 315 318 321 324 327 330 333 336 339 342 345 348 351 354 357 360 363 366 369 372 375 378 381 384 387 390 393 396 399 402 405 408 411 414 417 420 423 426 429 432 435 438 441 444 447 450 453 456 459 462 465 468 471 474 477 480 483 486 489 492 495 498 501 504 </DataArray>
<DataArray  type="UInt8"  Name="types"  format="ascii">5 5 5 5 5 5 5 5 5 5 5 5 5 5 5 5 5 5 5 5 5 5 5 5 5 5 5 5 5 5 5 5 5 5 5 5 5 5 5 5 5 5 5 5 5 5 5 5 5 5 5 5 5 5 5 5 5 5 5 5 5 5 5 5 5 5 5 5 5 5 5 5 5 5 5 5 5 5 5 5 5 5 5 5 5 5 5 5 5 5 5 5 5 5 5 5 5 5 5 5 5 5 5 5 5 5 5 5 5 5 5 5 5 5 5 5 5 5 5 5 5 5 5 5 5 5 5 5 5 5 5 5 5 5 5 5 5 5 5 5 5 5 5 5 5 5 5 5 5 5 5 5 5 5 5 5 5 5 5 5 5 5 5 5 5 5 5 5 </DataArray>
</Cells>
<PointData  Vectors="f_43-1"> 
<DataArray  type="Float64"  Name="f_43-1"  NumberOfComponents="3" format="ascii">1.7468511388498954e-06 -2.0078409792555930e-05 0.0000000000000000e+00  5.5609630974268564e-06 -2.2364262581024518e-05 0.0000000000000000e+00  4.3251939832881271e-06 -2.3860100691865546e-05 0.0000000000000000e+00  3.9474772240908497e-06 -1.9257703578056966e-05 0.0000000000000000e+00  9.4888448577211750e-06 -2.5317193865906555e-05 0.0000000000000000e+00  6.7750719853876896e-06 -2.1281258219555149e-05 0.0000000000000000e+00  7.2122858921643299e-06 -2.5747292764751667e-05 0.0000000000000000e+00  6.2759357192998802e-06 -3.3599156177214432e-05 0.0000000000000000e+00  7.7446529240929242e-06 -3.7718842717385492e-05 0.0000000000000000e+00  4.5397106652586948e-06 -3.6013325198148360e-05 0.0000000000000000e+00  5.8764358425071825e-06 -2.7230451298899732e-05 0.0000000000000000e+00  7.3684797226176003e-06 -3.1047687344843690e-05 0.0000000000000000e+00  4.3660884777885047e-06 -2.9299935094339541e-05 0.0000000000000000e+00  4.4976481493974008e-06 -1.3345102867165449e-05 0.0000000000000000e+00  5.8222571018359761e-06 -1.6592138984048086e-05 0.0000000000000000e+00  3.4796050566228147e-06 -1.4677469077897659e-05 0.0000000000000000e+00  3.7012105791199062e-06 -9.0177058941004544e-06 0.0000000000000000e+00  4.9661855433500336e-06 -1.1885749040960671e-05 0.0000000000000000e+00  2.9482901746338597e-06 -9.9576794127576090e-06 0.0000000000000000e+00  5.0887027045076732e-06 -1.8156663830236708e-05 0.0000000000000000e+00  1.0289375550861562e-05 -3.1323151930837551e-05 0.0000000000000000e+00  1.0625179823115875e-05 -3.4514035992488485e-05 0.0000000000000000e+00  7.9658569370054704e-06 -1.7379506301914382e-05 0.0000000000000000e+00  8.5167284393406102e-06 -1.9870562474942685e-05 0.0000000000000000e+00  1.0918471539251579e-05 -3.7819550994706456e-05 0.0000000000000000e+00  1.1169660322870812e-05 -4.1230972699493884e-05 0.0000000000000000e+00  1.6699647649605519e-06 -1.7206574920737605e-05 0.0000000000000000e+00  9.0245539941658344e-06 -2.2519705049292341e-05 0.0000000000000000e+00  1.0251280738563658e-06 -5.2845010935927143e-06 0.0000000000000000e+00  8.5243963951951272e-07 -3.4589088545382782e-06 0.0000000000000000e+00  2.5189989608551225e-06 -6.4758202627048067e-06 0.0000000000000000e+00  1.8038264436535932e-06 -2.3090672700920447e-05 0.0000000000000000e+00  3.7528815344665545e-06 -3.2203602209211802e-05 0.0000000000000000e+00  3.5817039787946958e-06 -2.5698216804822593e-05 0.0000000000000000e+00  2.7266041012478802e-06 -1.1813787443768635e-05 0.0000000000000000e+00  2.2266126676731675e-06 -7.4068271814919764e-06 0.0000000000000000e+00  9.9107770802124671e-06 -2.8254420186711530e-05 0.0000000000000000e+00  3.1607305367913044e-06 -1.6754757337002775e-05 0.0000000000000000e+00  8.1868593138174016e-06 -2.8659987839669965e-05 0.0000000000000000e+00  8.8264898570657772e-06 -3.5037845250492012e-05 0.0000000000000000e+00  6.2937976459610889e-06 -1.4943698248343677e-05 0.0000000000000000e+00  7.0744789911177362e-06 -1.9705058162847370e-05 0.0000000000000000e+00  1.8311493632534714e-06 -3.6369997400258769e-05 0.0000000000000000e+00  1.8555684226928324e-06 -3.2882475101207312e-05 0.0000000000000000e+00  1.8588123741530562e-06 -2.9501379380854427e-05 0.0000000000000000e+00  1.8414188815018768e-06 -2.6234669521925453e-05 0.0000000000000000e+00  1.5747260693380694e-06 -1.4483913567610196e-05 0.0000000000000000e+00  1.4617198982944783e-06 -1.1920552788648346e-05 0.0000000000000000e+00  1.3315946972545925e-06 -9.5260625216214554e-06 0.0000000000000000e+00  1.1856489068174559e-06 -7.3106920480757435e-06 0.0000000000000000e+00  9.2670684148490073e-07 -2.2530657923151245e-05 0.0000000000000000e+00  1.0881144118863371e-06 -2.6074420067486693e-05 0.0000000000000000e+00  9.3435669708617686e-07 -2.8471138767274265e-05 0.0000000000000000e+00  1.0728539194036558e-06 -1.6402799231917281e-05 0.0000000000000000e+00  1.0388165664713705e-06 -1.9707676044702562e-05 0.0000000000000000e+00  9.0048491167620303e-07 -1.6005101031226557e-05 0.0000000000000000e+00  1.4355831989891938e-06 -1.6235276036649159e-05 0.0000000000000000e+00  1.6040393203270406e-06 -3.3727819571613325e-05 0.0000000000000000e+00  9.5736517951287965e-06 -3.5088218410037208e-05 0.0000000000000000e+00  1.0237913630891364e-05 -3.5657529797153055e-05 0.0000000000000000e+00  1.0444824376477223e-05 -3.8639507375924329e-05 0.0000000000000000e+00  8.9020554357757510e-07 -1.3241417999549830e-05 0.0000000000000000e+00  1.0490799625197779e-06 -1.3161212074756058e-05 0.0000000000000000e+00  8.8175884071670894e-07 -1.8831041532822059e-05 0.0000000000000000e+00  1.2449430129806455e-06 -1.3874834252916399e-05 0.0000000000000000e+00  1.2357392867075337e-06 -1.6429625599735449e-05 0.0000000000000000e+00  1.0120484282413857e-06 -7.2545463040701572e-06 0.0000000000000000e+00  1.2614661136131118e-06 -1.1352725649626858e-05 0.0000000000000000e+00  9.0792952402688857e-06 -2.6597054497596844e-05 0.0000000000000000e+00  9.7866235774617760e-06 -3.2386734764641848e-05 0.0000000000000000e+00  1.3228861347410746e-06 -2.3937379906079100e-05 0.0000000000000000e+00  1.2275734066833341e-06 -1.9997569668319192e-05 0.0000000000000000e+00  1.1395224469366075e-06 -2.3298329241270640e-05 0.0000000000000000e+00  1.5919364885497135e-06 -2.1643688296140989e-05 0.0000000000000000e+00  1.6513787752273660e-06 -2.7467259288279341e-05 0.0000000000000000e+00  1.3927689900271828e-06 -1.3604434511006303e-05 0.0000000000000000e+00  1.2802397493183071e-06 -2.7747513120728149e-05 0.0000000000000000e+00  1.5547577058175489e-06 -1.8816473368367894e-05 0.0000000000000000e+00  1.6778613285203329e-06 -3.0711972177604320e-05 0.0000000000000000e+00  1.3977052785146524e-06 -1.9056767025293190e-05 0.0000000000000000e+00  9.6179294456366874e-07 -1.0292061284139250e-05 0.0000000000000000e+00  1.0835127499052828e-06 -9.6112195285318783e-06 0.0000000000000000e+00  9.3161609947831385e-07 -8.2800168722899459e-06 0.0000000000000000e+00  1.1205437318812847e-06 -1.1696996177061937e-05 0.0000000000000000e+00  1.1610432614620879e-06 -3.1409607026879843e-05 0.0000000000000000e+00  7.9970301108301713e-07 -8.0665570715849845e-06 0.0000000000000000e+00  8.4892964027974341e-07 -1.0766117006794793e-05 0.0000000000000000e+00  1.4909402309271489e-06 -2.9923846488598500e-05 0.0000000000000000e+00  8.1437854321696926e-07 -6.2488631472005061e-06 0.0000000000000000e+00  8.8089469825598981e-07 -5.2353024560905081e-06 0.0000000000000000e+00  1.5280711092372090e-06 -2.4360534578627696e-05 0.0000000000000000e+00  1.4117690370710612e-06 -2.1761297820337924e-05 0.0000000000000000e+00  1.4529456344280710e-06 -2.6738199977829439e-05 0.0000000000000000e+00  9.0680757584668015e-06 -3.1488298809257923e-05 0.0000000000000000e+00  1.3542829123636352e-06 -3.2514669836209497e-05 0.0000000000000000e+00  8.7502340140553168e-06 -2.3890709094764809e-05 0.0000000000000000e+00  1.1782009290542238e-06 -8.9834219977109574e-06 0.0000000000000000e+00  9.6487591715267224e-06 -2.9550033605014831e-05 0.0000000000000000e+00  1.6890866959609040e-06 -2.4556175030548211e-05 0.0000000000000000e+00  9.0894881453862585e-06 -2.9184715507842513e-05 0.0000000000000000e+00  </DataArray> 
</PointData> 
</Piece>
</UnstructuredGrid>
</VTKFile>