<?xml version="1.0"?>
<VTKFile type="UnstructuredGrid"  version="0.1"  >
<UnstructuredGrid>
<Piece  NumberOfPoints="100" NumberOfCells="168">
<Points>
<DataArray  type="Float64"  NumberOfComponents="3"  format="ascii">0.3535460261755617 0.19 0  0.3528922713220932 0.2000185703532356 0  0.3590076176283495 0.196411355804271 0  0.3473758401723931 0.1961819304478349 0  0.3535460261749672 0.21 0  0.3473758401724931 0.2038180695522752 0  0.3590471196690275 0.2036304442587945 0  0.3796850840047755 0.200000000000134 0  0.3871533862418661 0.2029084173136212 0  0.3871533862424271 0.1959250838464788 0  0.3650630746574081 0.199866017807523 0  0.3722167817676917 0.2029084173136195 0  0.372246743208829 0.1959123236376545 0  0.3274069683451451 0.2000000000000796 0  0.3348752705822316 0.202908417313609 0  0.3347912413592433 0.1959225448935183 0  0.3127789816668748 0.1998657885438805 0  0.3199386661080599 0.202908417313604 0  0.3199680582793816 0.1959123018030061 0  0.3417402379596385 0.1998691686391011 0  0.3684826306491596 0.21 0  0.3759509328862226 0.21 0  0.3311411194636928 0.21 0  0.3386094217007701 0.21 0  0.383419235123329 0.21 0  0.3908875373604028 0.21 0  0.3460777239384295 0.19 0  0.3460777239378666 0.21 0  0.3087362127527544 0.19 0  0.3012679105156187 0.19 0  0.3066757059912147 0.1964092924317024 0  0.361014328412667 0.19 0  0.3796850840055151 0.1943028057712579 0  0.3647484795312433 0.1943028057712484 0  0.3274069683455914 0.1943028057712305 0  0.3124703638713219 0.1943028057712193 0  0.3610143284120516 0.21 0  0.341834128962283 0.1943988119061815 0  0.3650260178642469 0.2054197153269502 0  0.3796850840047754 0.2056971942288865 0  0.3274069683451451 0.2056971942288527 0  0.341845332858566 0.2054104280253135 0  0.3908875373612097 0.19 0  0.3834192351240934 0.19 0  0.3759509328869369 0.19 0  0.3684826306498175 0.19 0  0.3386094217012945 0.19 0  0.3311411194641595 0.19 0  0.3236728172270245 0.19 0  0.3162045149898895 0.19 0  0.3655464778159961 0.1466879707354811 0  0.3738358170836363 0.1565872175614931 0  0.383930166391577 0.149077512173999 0  0.3418349201952718 0.1615259010424026 0  0.3538118084207602 0.155339561103512 0  0.3411001259021957 0.1498303228783227 0  0.3422976980851364 0.1814371791041619 0  0.3871183818181629 0.1813492091082587 0  0.3803545031770169 0.2233799225275491 0  0.3797734699465006 0.2157346552691785 0  0.3868315570898186 0.2161590584307608 0  0.3298647941762166 0.154951077946048 0  0.3304301052933576 0.1665413931712652 0  0.3527566348301668 0.1449455739485435 0  0.3342547353003448 0.176221364131867 0  0.3420590264647178 0.171174416987776 0  0.3125543224194783 0.1825714068210268 0  0.3272791508030818 0.1825813053721834 0  0.3572801772935104 0.2173273935815939 0  0.3722102571583817 0.2173806806735415 0  0.3647484950731696 0.1690362455853913 0  0.3534047339781095 0.1664079800909994 0  0.3646043070190422 0.1595814785132252 0  0.3573906953035386 0.1825704874733474 0  0.3721062650880237 0.1825704912629938 0  0.334769373574778 0.1838585991320073 0  0.3758459195692864 0.1665688727818971 0  0.3498118750569956 0.1834818329761723 0  0.3796850840055151 0.1834818329761566 0  0.350235271979906 0.176105405901683 0  0.3198867512741007 0.1691875758392534 0  0.3199291472277772 0.1784487091275169 0  0.3133418865444516 0.1745347694704089 0  0.3264689647572548 0.1745410252268062 0  0.3871533862426517 0.1622083790690482 0  0.30960746080092 0.166771572284543 0  0.3198495352051576 0.1594009174606977 0  0.3792616967340072 0.1761054533295981 0  0.3052148703289762 0.176135200920133 0  0.3050224637686886 0.1840003691157356 0  0.3647484799225001 0.1783360555704042 0  0.3580172190788822 0.1744509634985612 0  0.3714797435049115 0.1744509558619459 0  0.3716385577875085 0.2254972730720332 0  0.3870163828938027 0.1711802904735331 0  0.3497998287380586 0.2162289176852799 0  0.3199315490584526 0.1848904494130124 0  0.3647474910084925 0.215095947068514 0  0.3647484797606208 0.1848841839272463 0  0.364747590224077 0.2216658739063822 0  </DataArray>
</Points>
<Cells>
<DataArray  type="UInt32"  Name="connectivity"  format="ascii">0 1 2  0 1 3  4 1 5  4 1 6  7 8 9  10 11 12  13 14 15  16 17 18  13 17 18  19 14 15  7 11 12  20 21 11  22 23 14  24 25 8  0 26 3  27 4 5  28 29 30  31 0 2  7 9 32  10 12 33  13 15 34  16 18 35  13 18 34  7 12 32  4 36 6  19 15 37  20 11 38  21 11 39  10 11 38  24 8 39  22 14 40  7 8 39  7 11 39  13 17 40  13 14 40  23 14 41  19 14 41  42 43 9  44 45 12  46 47 15  48 49 18  10 2 6  1 2 6  44 12 32  43 9 32  45 12 33  47 15 34  49 18 35  48 18 34  1 5 3  19 5 3  46 15 37  10 6 38  26 46 37  23 27 41  43 44 32  45 31 33  36 20 38  21 24 39  47 48 34  49 28 35  36 6 38  10 2 33  31 2 33  16 30 35  28 30 35  26 3 37  27 5 41  19 5 41  19 3 37  50 51 52  53 54 55  26 46 56  42 43 57  58 59 60  53 61 62  54 55 63  64 62 65  53 62 65  49 28 66  47 48 67  4 36 68  20 21 69  70 71 72  31 0 73  44 45 74  46 56 75  70 76 72  26 56 77  53 54 71  43 57 78  58 69 59  79 73 77  80 81 82  80 81 83  84 51 76  64 67 75  80 85 86  87 74 78  53 61 55  80 62 86  88 66 89  79 56 65  64 56 65  70 90 91  70 90 92  58 69 93  79 71 65  84 51 52  87 57 94  27 4 95  28 29 89  46 47 75  88 66 82  64 67 83  21 24 59  0 26 77  79 73 91  70 91 71  43 44 78  54 71 72  70 92 76  28 66 89  87 74 92  51 76 72  87 76 94  47 67 75  4 68 95  21 69 59  0 73 77  79 56 77  44 74 78  61 62 86  53 71 65  49 66 96  64 56 75  87 57 78  48 67 96  36 68 97  20 69 97  31 73 98  45 74 98  24 25 60  84 76 94  50 54 72  50 51 72  88 85 82  24 59 60  81 66 82  80 85 82  81 67 83  50 54 63  79 91 71  99 69 93  64 62 83  80 62 83  87 92 76  90 73 91  90 74 92  81 66 96  81 67 96  48 49 96  99 68 97  36 20 97  99 69 97  45 31 98  90 73 98  90 74 98  </DataArray>
<DataArray  type="UInt32"  Name="offsets"  format="ascii">3 6 9 12 15 18 21 24 27 30 33 36 39 42 45 48 51 54 57 60 63 66 69 72 75 78 81 84 87 90 93 96 99 102 105 108 111 114 117 120 123 126 129 132 135 138 141 144 147 150 153 156 159 162 165 168 171 174 177 180 183 186 189 192 195 198 201 204 207 210 213 216 219 222 225 228 231 234 237 240 243 246 249 252 255 258 261 264 267 270 273 276 279 282 285 288 291 294 297 300 303 306 309 312 315 318 321 324 327 330 333 336 339 342 345 348 351 354 357 360 363 366 369 372 375 378 381 384 387 390 393 396 399 402 405 408 411 414 417 420 423 426 429 432 435 438 441 444 447 450 453 456 459 462 465 468 471 474 477 480 483 486 489 492 495 498 501 504 </DataArray>
<DataArray  type="UInt8"  Name="types"  format="ascii">5 5 5 5 5 5 5 5 5 5 5 5 5 5 5 5 5 5 5 5 5 5 5 5 5 5 5 5 5 5 5 5 5 5 5 5 5 5 5 5 5 5 5 5 5 5 5 5 5 5 5 5 5 5 5 5 5 5 5 5 5 5 5 5 5 5 5 5 5 5 5 5 5 5 5 5 5 5 5 5 5 5 5 5 5 5 5 5 5 5 5 5 5 5 5 5 5 5 5 5 5 5 5 5 5 5 5 5 5 5 5 5 5 5 5 5 5 5 5 5 5 5 5 5 5 5 5 5 5 5 5 5 5 5 5 5 5 5 5 5 5 5 5 5 5 5 5 5 5 5 5 5 5 5 5 5 5 5 5 5 5 5 5 5 5 5 5 5 </DataArray>
</Cells>
<PointData  Vectors="f_43-1"> 
<DataArray  type="Float64"  Name="f_43-1"  NumberOfComponents="3" format="ascii">2.0887057391531569e-06 -2.3698697750303742e-05 0.0000000000000000e+00  6.5609663309778936e-06 -2.6129074254837671e-05 0.0000000000000000e+00  5.1311997559565926e-06 -2.7972462584079148e-05 0.0000000000000000e+00  4.6527797772865406e-06 -2.2583496253136295e-05 0.0000000000000000e+00  1.1166265696719029e-05 -2.9344326592080822e-05 0.0000000000000000e+00  7.9668784519204256e-06 -2.4764330329452840e-05 0.0000000000000000e+00  8.5174951778902045e-06 -3.0007474921015653e-05 0.0000000000000000e+00  7.4977822349352177e-06 -3.9312443736668767e-05 0.0000000000000000e+00  9.2544069918673909e-06 -4.4080305758302877e-05 0.0000000000000000e+00  5.4908015512090183e-06 -4.2245016502391704e-05 0.0000000000000000e+00  6.9720651049814784e-06 -3.1840603330324150e-05 0.0000000000000000e+00  8.7497385421833442e-06 -3.6246166653798832e-05 0.0000000000000000e+00  5.2260373979376219e-06 -3.4365620115892854e-05 0.0000000000000000e+00  5.2493777343540369e-06 -1.5563593832526304e-05 0.0000000000000000e+00  6.8164629286222169e-06 -1.9291482280653441e-05 0.0000000000000000e+00  4.0727446935993150e-06 -1.7226290105865475e-05 0.0000000000000000e+00  4.2946716527311248e-06 -1.0506440750698836e-05 0.0000000000000000e+00  5.7835509882952287e-06 -1.3781322733185886e-05 0.0000000000000000e+00  3.4232569334254878e-06 -1.1706564691929711e-05 0.0000000000000000e+00  5.9750262073818241e-06 -2.1201116668289253e-05 0.0000000000000000e+00  1.2160851090486566e-05 -3.6395762396476218e-05 0.0000000000000000e+00  1.2585643761071786e-05 -4.0143841279321331e-05 0.0000000000000000e+00  9.3144398487577081e-06 -2.0033277469907401e-05 0.0000000000000000e+00  9.9796793639924763e-06 -2.2954149708146569e-05 0.0000000000000000e+00  1.2962553755273965e-05 -4.4027608311472114e-05 0.0000000000000000e+00  1.3292007190794732e-05 -4.8036738165282235e-05 0.0000000000000000e+00  1.9779895505094767e-06 -2.0335296101733201e-05 0.0000000000000000e+00  1.0597258871116658e-05 -2.6061620925912399e-05 0.0000000000000000e+00  1.1603823181501617e-06 -6.4038850845654829e-06 0.0000000000000000e+00  9.5577637019070403e-07 -4.2779982182767685e-06 0.0000000000000000e+00  2.9072915617973493e-06 -7.6280927895650818e-06 0.0000000000000000e+00  2.1784330484410443e-06 -2.7228489077242170e-05 0.0000000000000000e+00  4.5351386730689629e-06 -3.7812093605688721e-05 0.0000000000000000e+00  4.2780368475169856e-06 -3.0179915970173801e-05 0.0000000000000000e+00  3.1757182486515001e-06 -1.3917173086042414e-05 0.0000000000000000e+00  2.5697378491948156e-06 -8.7687746223549156e-06 0.0000000000000000e+00  1.1687896370159479e-05 -3.2792261727157085e-05 0.0000000000000000e+00  3.7156435729548248e-06 -1.9696400446490304e-05 0.0000000000000000e+00  9.6819688294794250e-06 -3.3381573451827491e-05 0.0000000000000000e+00  1.0491387064517854e-05 -4.0863852127062452e-05 0.0000000000000000e+00  7.3504871814211593e-06 -1.7289416733983178e-05 0.0000000000000000e+00  8.3011563754890066e-06 -2.2876264752344027e-05 0.0000000000000000e+00  2.3247084516622940e-06 -4.2805212918768697e-05 0.0000000000000000e+00  2.3214311557061188e-06 -3.8712434750765429e-05 0.0000000000000000e+00  2.2955584773770945e-06 -3.4745660834708264e-05 0.0000000000000000e+00  2.2477161655729434e-06 -3.0914383584636516e-05 0.0000000000000000e+00  1.8482176524983885e-06 -1.7148658706089896e-05 0.0000000000000000e+00  1.7002736316317093e-06 -1.4150682554133005e-05 0.0000000000000000e+00  1.5351048030225032e-06 -1.1352637081053148e-05 0.0000000000000000e+00  1.3545631523286910e-06 -8.7664710477375018e-06 0.0000000000000000e+00  1.2133810711668443e-06 -2.6592772471471522e-05 0.0000000000000000e+00  1.4210385234798866e-06 -3.0752313614385688e-05 0.0000000000000000e+00  1.2736590450478364e-06 -3.3569819366442266e-05 0.0000000000000000e+00  1.3184363001953598e-06 -1.9402028487388563e-05 0.0000000000000000e+00  1.3109484093052730e-06 -2.3278609826014010e-05 0.0000000000000000e+00  1.1268575768798125e-06 -1.8931968183523989e-05 0.0000000000000000e+00  1.7127033966973524e-06 -1.9203889593829040e-05 0.0000000000000000e+00  2.0528518669380153e-06 -3.9716891690236091e-05 0.0000000000000000e+00  1.1392818437502717e-05 -4.0879840398654068e-05 0.0000000000000000e+00  1.2158171334537555e-05 -4.1514422042842964e-05 0.0000000000000000e+00  1.2432252035571550e-05 -4.5020751608086295e-05 0.0000000000000000e+00  1.0907125095345281e-06 -1.5691541664162809e-05 0.0000000000000000e+00  1.2628843658574167e-06 -1.5603398731480521e-05 0.0000000000000000e+00  1.1316028367251396e-06 -2.2248079017290975e-05 0.0000000000000000e+00  1.4827506048599271e-06 -1.6441131860874132e-05 0.0000000000000000e+00  1.4963610086160195e-06 -1.9434113149847280e-05 0.0000000000000000e+00  1.1663611152069626e-06 -8.6999459285511229e-06 0.0000000000000000e+00  1.4767996081077913e-06 -1.3489373733051177e-05 0.0000000000000000e+00  1.0716371066949205e-05 -3.0879391633287107e-05 0.0000000000000000e+00  1.1600778378378991e-05 -3.7679068575476233e-05 0.0000000000000000e+00  1.6591447011887204e-06 -2.8238689271819755e-05 0.0000000000000000e+00  1.5197743841383242e-06 -2.3617914527676194e-05 0.0000000000000000e+00  1.4528760705247764e-06 -2.7492365002750518e-05 0.0000000000000000e+00  1.9331821526620566e-06 -2.5539973007298628e-05 0.0000000000000000e+00  2.0501706077742153e-06 -3.2369000177510921e-05 0.0000000000000000e+00  1.6412914531109957e-06 -1.6123164818307695e-05 0.0000000000000000e+00  1.6459993073724945e-06 -3.2711565562552939e-05 0.0000000000000000e+00  1.8667913270310955e-06 -2.2226116797457435e-05 0.0000000000000000e+00  2.1076279282341814e-06 -3.6174770919440619e-05 0.0000000000000000e+00  1.6972272108675786e-06 -2.2511856444678633e-05 0.0000000000000000e+00  1.1412851370088701e-06 -1.2243910952345889e-05 0.0000000000000000e+00  1.2667898185570538e-06 -1.1452288978319482e-05 0.0000000000000000e+00  1.0894581660623338e-06 -9.8931197575584452e-06 0.0000000000000000e+00  1.3269120661941636e-06 -1.3891318438537576e-05 0.0000000000000000e+00  1.5473494428245893e-06 -3.7014224353724863e-05 0.0000000000000000e+00  9.4469491995612087e-07 -9.6352578783524866e-06 0.0000000000000000e+00  1.0231802778737000e-06 -1.2791651077512320e-05 0.0000000000000000e+00  1.8958345294987418e-06 -3.5258194705702021e-05 0.0000000000000000e+00  9.4319512214136727e-07 -7.5195988603089159e-06 0.0000000000000000e+00  1.0047335080752395e-06 -6.3440589896425306e-06 0.0000000000000000e+00  1.8875514182207142e-06 -2.8728986484423330e-05 0.0000000000000000e+00  1.7370171645452498e-06 -2.5683371299318871e-05 0.0000000000000000e+00  1.8262901388071894e-06 -3.1521358530789088e-05 0.0000000000000000e+00  1.0769090256143755e-05 -3.6658858803240071e-05 0.0000000000000000e+00  1.7686027685913789e-06 -3.8304268463415165e-05 0.0000000000000000e+00  1.0303570003520317e-05 -2.7697905021294308e-05 0.0000000000000000e+00  1.3632899714369117e-06 -1.0719829528856276e-05 0.0000000000000000e+00  1.1406040639496550e-05 -3.4336905323439036e-05 0.0000000000000000e+00  2.0657347940182313e-06 -2.8952320852485626e-05 0.0000000000000000e+00  1.0762939203683021e-05 -3.3936656677069528e-05 0.0000000000000000e+00  </DataArray> 
</PointData> 
</Piece>
</UnstructuredGrid>
</VTKFile>