<?xml version="1.0"?>
<VTKFile type="UnstructuredGrid"  version="0.1"  >
<UnstructuredGrid>
<Piece  NumberOfPoints="103" NumberOfCells="167">
<Points>
<DataArray  type="Float64"  NumberOfComponents="3"  format="ascii">0.2286913662688903 0.3133959500822503 0  0.2457579136251883 0.3036253283210157 0  0.2370120387482942 0.3305347050441392 0  0.1133943915886014 0.3302098901172357 0  0.1085927601152855 0.3576703429582752 0  0.1291050229147523 0.3369598757086243 0  0.1876570762350594 0.2701429686523801 0  0.1759534499456636 0.268744809012302 0  0.1862475166430347 0.2806184243256064 0  0.1704873609912336 0.2583583661241701 0  0.1801707401936674 0.2578452677740249 0  0.3009672322348927 0.299853464475565 0  0.2860802002973516 0.3223921533999551 0  0.2799076752212695 0.2955946972235118 0  0.2004289920815778 0.2885787263743592 0  0.2083656065158181 0.2774025780460683 0  0.2175887234644184 0.2860477873464338 0  0.1987596795720009 0.2706417532988148 0  0.1949745518995776 0.2497468076502398 0  0.202315810036185 0.2499463414463592 0  0.1988936168129591 0.2591743361304991 0  0.1613699074131162 0.2874965309748423 0  0.1497954449456231 0.3068853213507886 0  0.1704962809759384 0.2989815459796012 0  0.1273239957535623 0.41 0  0.1550887940203835 0.3759695678273732 0  0.1305531867707806 0.3723894882772687 0  0.2328041563607919 0.2914013345123573 0  0.2145757352600842 0.3012314566270872 0  0.2199699516855607 0.2730509421907208 0  0.2088779690661671 0.2650057074514391 0  0.2335552553807713 0.3548019770067952 0  0.216380800632318 0.3798697230577418 0  0.2537725505472335 0.3777585525832137 0  0.09377624077128965 0.41 0  0.06140001986584975 0.41 0  0.08484979611354741 0.3801877867628078 0  0.3141745521466497 0.41 0  0.3098481778850767 0.3708824362367037 0  0.2803555148413351 0.3762695151888899 0  0.1712191068054211 0.2792458170307043 0  0.3236197880522565 0.342390365483443 0  0.3436434970543172 0.3743236175823911 0  0.2548303845886413 0.3306565522725438 0  0.1851735785078722 0.2631071774152569 0  0.1620856860352591 0.41 0  0.1654256928847844 0.3451700819208795 0  0.1447999649086052 0.3470007664317952 0  0.2460936211071839 0.2733779098999782 0  0.250265698216607 0.2591459325753045 0  0.2578547799253117 0.2736699879086193 0  0.2747137483983895 0.3519826740290966 0  0.2673795049878581 0.3181867883572329 0  0.2403498351518432 0.2646826079825986 0  0.2595321800985562 0.2853145787115269 0  0.245890675076073 0.2871394349824882 0  0.2199894283484474 0.2630314844485698 0  0.2632645194651774 0.3015808908677137 0  0.2741016576310038 0.41 0  0.128782395741745 0.3539195748014988 0  0.1110093235748128 0.3847859225763507 0  0.1666231880877755 0.3117643555727803 0  0.1841090525772461 0.3084299065503739 0  0.1776920932687694 0.3258630445439892 0  0.1759665552266909 0.3607453311538497 0  0.1917080515020064 0.3413476842478615 0  0.3556974926297398 0.41 0  0.2096071079201568 0.2490683551528932 0  0.2166911463435495 0.2471317900544655 0  0.2155707468285289 0.2556953171569842 0  0.2354281840915826 0.41 0  0.1892742072748776 0.2564561470775296 0  0.3054340412842468 0.3221719107153626 0  0.2069640661720074 0.2559705483641431 0  0.299175979503955 0.3443721019725888 0  0.1985922711404066 0.3216774874340058 0  0.217902467256 0.3335522763450835 0  0.1957380535525476 0.3607047222935699 0  0.1837099792663048 0.3830312172891498 0  0.1877417105384929 0.2484740584176516 0  0.1608308335189591 0.3262714997547831 0  0.2122294664542327 0.3536582770139244 0  0.2000381356635816 0.3047271648646204 0  0.1647287152160364 0.2637534120846467 0  0.2294756118369428 0.2628646849955408 0  0.1742197252833576 0.2428413052501257 0  0.1807733240458683 0.2461555514727623 0  0.1752851331147261 0.2508158313127855 0  0.1441725906822958 0.3262643694130186 0  0.1771221153651656 0.2877467988749257 0  0.1981052433265003 0.41 0  0.2520678298491301 0.3496835930425019 0  0.2337109879526324 0.2717726746338737 0  0.1827267976827431 0.2517822297587077 0  0.1632849702488283 0.2726003915760372 0  0.2370670604668411 0.2561437100875122 0  0.1298722944302657 0.3189004895954476 0  0.2129990509249649 0.3158541689725088 0  0.2254320944728471 0.256276132616746 0  0.1865831931948131 0.2944379361003471 0  0.1921250322631934 0.2639147861870621 0  0.2282286223197668 0.2809381514776019 0  0.2375747325401397 0.2803566777819222 0  </DataArray>
</Points>
<Cells>
<DataArray  type="UInt32"  Name="connectivity"  format="ascii">0 1 2  3 4 5  6 7 8  9 10 7  11 12 13  14 15 16  14 15 17  18 19 20  21 22 23  14 17 8  24 25 26  0 27 28  14 28 16  29 30 15  31 32 33  34 35 36  37 38 39  7 8 40  41 38 42  43 1 2  10 7 44  45 24 25  46 25 47  48 49 50  37 38 42  51 43 52  48 49 53  54 1 55  43 1 52  51 12 52  29 30 56  57 13 52  37 58 39  57 1 52  12 13 52  59 4 5  34 36 60  61 62 63  59 47 26  46 64 65  6 17 8  46 63 65  66 37 42  67 68 69  70 32 33  18 20 71  27 28 16  25 47 26  61 22 23  11 12 72  19 20 73  30 69 56  57 54 1  41 38 74  75 76 65  77 32 78  0 27 1  51 74 39  41 74 72  46 25 64  57 54 13  79 18 71  61 22 80  24 34 60  76 81 65  14 28 82  75 62 63  30 15 17  61 62 23  9 7 83  45 25 78  29 56 84  24 60 26  29 15 16  85 86 87  9 10 87  48 55 50  38 74 39  88 22 80  77 64 65  30 20 17  89 8 40  77 32 81  67 69 73  70 90 32  31 33 91  58 70 33  31 32 81  51 33 91  36 60 4  6 7 44  29 92 84  30 69 73  90 45 78  79 71 93  51 12 74  94 7 83  95 53 84  90 32 78  19 67 73  88 22 96  86 87 93  0 76 97  95 98 84  54 55 50  77 81 65  62 23 99  30 20 73  75 62 82  28 82 97  12 74 72  89 23 99  75 76 97  0 28 97  95 49 53  51 33 39  51 43 91  75 82 97  27 1 55  10 87 93  94 21 40  0 76 2  92 53 84  43 2 91  10 71 93  77 78 64  88 80 47  58 33 39  98 69 56  59 4 26  20 17 100  31 2 91  25 78 64  61 63 80  29 16 101  29 92 101  46 80 47  14 82 99  48 92 53  31 76 2  60 4 26  89 21 40  75 63 65  27 16 101  46 63 80  94 7 40  6 17 100  86 79 93  89 21 23  62 82 99  98 56 84  20 71 100  48 92 102  10 71 44  31 76 81  27 55 102  48 55 102  27 101 102  14 8 99  89 8 99  88 96 5  88 47 5  92 101 102  71 100 44  3 96 5  6 100 44  59 47 5  </DataArray>
<DataArray  type="UInt32"  Name="offsets"  format="ascii">3 6 9 12 15 18 21 24 27 30 33 36 39 42 45 48 51 54 57 60 63 66 69 72 75 78 81 84 87 90 93 96 99 102 105 108 111 114 117 120 123 126 129 132 135 138 141 144 147 150 153 156 159 162 165 168 171 174 177 180 183 186 189 192 195 198 201 204 207 210 213 216 219 222 225 228 231 234 237 240 243 246 249 252 255 258 261 264 267 270 273 276 279 282 285 288 291 294 297 300 303 306 309 312 315 318 321 324 327 330 333 336 339 342 345 348 351 354 357 360 363 366 369 372 375 378 381 384 387 390 393 396 399 402 405 408 411 414 417 420 423 426 429 432 435 438 441 444 447 450 453 456 459 462 465 468 471 474 477 480 483 486 489 492 495 498 501 </DataArray>
<DataArray  type="UInt8"  Name="types"  format="ascii">5 5 5 5 5 5 5 5 5 5 5 5 5 5 5 5 5 5 5 5 5 5 5 5 5 5 5 5 5 5 5 5 5 5 5 5 5 5 5 5 5 5 5 5 5 5 5 5 5 5 5 5 5 5 5 5 5 5 5 5 5 5 5 5 5 5 5 5 5 5 5 5 5 5 5 5 5 5 5 5 5 5 5 5 5 5 5 5 5 5 5 5 5 5 5 5 5 5 5 5 5 5 5 5 5 5 5 5 5 5 5 5 5 5 5 5 5 5 5 5 5 5 5 5 5 5 5 5 5 5 5 5 5 5 5 5 5 5 5 5 5 5 5 5 5 5 5 5 5 5 5 5 5 5 5 5 5 5 5 5 5 5 5 5 5 5 5 </DataArray>
</Cells>
<PointData  Vectors="f_43-1"> 
<DataArray  type="Float64"  Name="f_43-1"  NumberOfComponents="3" format="ascii">-5.0360840913536512e-07 3.7166341629843795e-06 0.0000000000000000e+00  -7.6052183279502847e-07 5.3666881859497124e-06 0.0000000000000000e+00  -4.2838474060805252e-07 3.6946273670446111e-06 0.0000000000000000e+00  -5.5278472559245952e-08 4.3127358911435481e-07 0.0000000000000000e+00  -3.9086880010397388e-08 3.1109404849845584e-07 0.0000000000000000e+00  -7.0326170405037826e-08 5.4780182305519194e-07 0.0000000000000000e+00  -1.5509016248706869e-07 9.7442180644732408e-07 0.0000000000000000e+00  -1.1183092196405868e-07 7.3321732678749467e-07 0.0000000000000000e+00  -1.9486181191048592e-07 1.2627959716154909e-06 0.0000000000000000e+00  -6.3076935234264437e-08 4.2010678464798508e-07 0.0000000000000000e+00  -6.6914433972316977e-08 4.2834538370071327e-07 0.0000000000000000e+00  -1.0750324696887547e-06 1.1989330803884719e-05 0.0000000000000000e+00  -6.0514397561804362e-07 7.5644332542788531e-06 0.0000000000000000e+00  -1.2658653220778633e-06 9.9372693321661953e-06 0.0000000000000000e+00  -3.0940597917377780e-07 1.9839599445807842e-06 0.0000000000000000e+00  -3.4864504895855259e-07 2.0633850647627363e-06 0.0000000000000000e+00  -4.8621996215222420e-07 2.9472631666498921e-06 0.0000000000000000e+00  -2.1956464211998247e-07 1.3149164071581982e-06 0.0000000000000000e+00  0.0000000000000000e+00 0.0000000000000000e+00 0.0000000000000000e+00  0.0000000000000000e+00 0.0000000000000000e+00 0.0000000000000000e+00  -1.1719960888974081e-07 6.7963510442296610e-07 0.0000000000000000e+00  -1.2326074218911739e-07 8.6406373058699516e-07 0.0000000000000000e+00  -1.1141829324271687e-07 8.2104490069888242e-07 0.0000000000000000e+00  -1.6370771794079124e-07 1.1547764587853529e-06 0.0000000000000000e+00  0.0000000000000000e+00 0.0000000000000000e+00 0.0000000000000000e+00  -5.8504019158067613e-08 4.8378120063585082e-07 0.0000000000000000e+00  -4.3226889438441679e-08 3.4869822250511804e-07 0.0000000000000000e+00  -6.9682095257010138e-07 4.3178630038516598e-06 0.0000000000000000e+00  -4.3351683394347938e-07 2.9150548200971439e-06 0.0000000000000000e+00  -4.8843785969474782e-07 2.6831694800673504e-06 0.0000000000000000e+00  -2.5905639577728375e-07 1.4381013867995258e-06 0.0000000000000000e+00  -2.5178159571030956e-07 2.5166071566007576e-06 0.0000000000000000e+00  -1.1120627764041819e-07 1.1143695018705215e-06 0.0000000000000000e+00  -1.3387532170174980e-07 1.8636714460640711e-06 0.0000000000000000e+00  0.0000000000000000e+00 0.0000000000000000e+00 0.0000000000000000e+00  0.0000000000000000e+00 0.0000000000000000e+00 0.0000000000000000e+00  -1.5592645576564070e-08 1.2560421848128638e-07 0.0000000000000000e+00  0.0000000000000000e+00 0.0000000000000000e+00 0.0000000000000000e+00  4.4375264377543896e-08 3.2542326917681913e-06 0.0000000000000000e+00  -9.7117432733932622e-08 2.4427304030430130e-06 0.0000000000000000e+00  -1.3345229831731571e-07 9.0131071413811408e-07 0.0000000000000000e+00  1.2354921971101011e-07 6.4742391620012783e-06 0.0000000000000000e+00  3.8680917867359627e-07 2.6732559135061945e-06 0.0000000000000000e+00  -4.9264977904439871e-07 4.7388654716619506e-06 0.0000000000000000e+00  -1.0571847833956758e-07 6.6365963572599829e-07 0.0000000000000000e+00  0.0000000000000000e+00 0.0000000000000000e+00 0.0000000000000000e+00  -1.2234786908797197e-07 9.7082238910885992e-07 0.0000000000000000e+00  -8.4365660667308027e-08 6.6524258385929766e-07 0.0000000000000000e+00  -1.1377035598816626e-06 5.8410220582067064e-06 0.0000000000000000e+00  -1.4567492547539363e-06 6.1934674419381568e-06 0.0000000000000000e+00  -1.5058213582704860e-06 7.8397645777815129e-06 0.0000000000000000e+00  -2.6818431430716145e-07 4.1939495377948813e-06 0.0000000000000000e+00  -6.9750424655339292e-07 6.5081390663255889e-06 0.0000000000000000e+00  -9.9288014875070141e-07 4.6515201017550945e-06 0.0000000000000000e+00  -1.2800531524533419e-06 7.7424135080921217e-06 0.0000000000000000e+00  -9.6929529716227814e-07 5.7951475723183887e-06 0.0000000000000000e+00  -3.9915350370558059e-07 2.0428607168550727e-06 0.0000000000000000e+00  -9.8198927089140595e-07 7.3196634593741210e-06 0.0000000000000000e+00  0.0000000000000000e+00 0.0000000000000000e+00 0.0000000000000000e+00  -5.8730602248242497e-08 4.6583179881080275e-07 0.0000000000000000e+00  -2.1331583911753032e-08 1.7216123247351712e-07 0.0000000000000000e+00  -1.5512605453956609e-07 1.1347631932710352e-06 0.0000000000000000e+00  -2.2119654000318147e-07 1.5777754363138251e-06 0.0000000000000000e+00  -1.8138088457404149e-07 1.3742554749486987e-06 0.0000000000000000e+00  -1.1373523361733591e-07 9.4607383970935050e-07 0.0000000000000000e+00  -1.9639257094486920e-07 1.5854520291651816e-06 0.0000000000000000e+00  0.0000000000000000e+00 0.0000000000000000e+00 0.0000000000000000e+00  0.0000000000000000e+00 0.0000000000000000e+00 0.0000000000000000e+00  0.0000000000000000e+00 0.0000000000000000e+00 0.0000000000000000e+00  -2.0393427394201680e-07 1.0306489360342623e-06 0.0000000000000000e+00  0.0000000000000000e+00 0.0000000000000000e+00 0.0000000000000000e+00  -6.5902690613695400e-08 4.0327279889340580e-07 0.0000000000000000e+00  -4.3396464147153806e-07 8.8298604983098510e-06 0.0000000000000000e+00  -1.1936471338014841e-07 6.4885179582708097e-07 0.0000000000000000e+00  -1.9374402184139204e-07 5.7665859712786256e-06 0.0000000000000000e+00  -2.7364951310632296e-07 2.0530475633201581e-06 0.0000000000000000e+00  -3.2246365430490313e-07 2.6502319134630417e-06 0.0000000000000000e+00  -1.5011304876797672e-07 1.3045509325478665e-06 0.0000000000000000e+00  -7.0155265175975559e-08 6.1948940683499138e-07 0.0000000000000000e+00  0.0000000000000000e+00 0.0000000000000000e+00 0.0000000000000000e+00  -1.3294573944624087e-07 1.0095496889655105e-06 0.0000000000000000e+00  -2.1163095251841906e-07 1.8907963135133973e-06 0.0000000000000000e+00  -3.1181309452165576e-07 2.1601364931686167e-06 0.0000000000000000e+00  -7.6228785601968238e-08 5.1805975031906520e-07 0.0000000000000000e+00  -6.2356577955318028e-07 3.0073534709497020e-06 0.0000000000000000e+00  0.0000000000000000e+00 0.0000000000000000e+00 0.0000000000000000e+00  0.0000000000000000e+00 0.0000000000000000e+00 0.0000000000000000e+00  -3.1606859883396169e-08 2.0752685002202637e-07 0.0000000000000000e+00  -9.8081530891091968e-08 7.4895090494451537e-07 0.0000000000000000e+00  -1.7322778796815386e-07 1.1729506769656881e-06 0.0000000000000000e+00  0.0000000000000000e+00 0.0000000000000000e+00 0.0000000000000000e+00  -3.1063395103047890e-07 3.4662337214703817e-06 0.0000000000000000e+00  -7.8477842130832810e-07 4.0512782060861005e-06 0.0000000000000000e+00  -3.1025749530820406e-08 1.9666520941187571e-07 0.0000000000000000e+00  -9.8129859183260803e-08 6.7253862772759967e-07 0.0000000000000000e+00  -8.1769147599745871e-07 3.5089836710440791e-06 0.0000000000000000e+00  -7.7230067163321719e-08 5.8955412244741218e-07 0.0000000000000000e+00  -3.7421215955296175e-07 2.7499756203846241e-06 0.0000000000000000e+00  -4.1469802315600457e-07 1.9366250478728324e-06 0.0000000000000000e+00  -2.2786930759399079e-07 1.5422452897014410e-06 0.0000000000000000e+00  -1.3289003472466904e-07 8.0772760844759190e-07 0.0000000000000000e+00  -6.5735615265526979e-07 3.7424101933705316e-06 0.0000000000000000e+00  -8.5418324123320066e-07 4.7629698584346385e-06 0.0000000000000000e+00  </DataArray> 
</PointData> 
</Piece>
</UnstructuredGrid>
</VTKFile>