<?xml version="1.0"?>
<VTKFile type="UnstructuredGrid"  version="0.1"  >
<UnstructuredGrid>
<Piece  NumberOfPoints="103" NumberOfCells="170">
<Points>
<DataArray  type="Float64"  NumberOfComponents="3"  format="ascii">0 0.3514285714286952 0  0.03215830272795324 0.3311110896359255 0  0.02400550655420258 0.3538155845945724 0  0.1521457199348437 0.2144902684393899 0  0.1547844879126531 0.221343792228163 0  0.1460074103989341 0.2155962236814484 0  0 0.3221428571430699 0  0.1022962111550141 0.273832470550381 0  0.1121786756446853 0.257597694764058 0  0.1185619469878228 0.2730177051871591 0  0.05939492550527375 0.3149957962361826 0  0.03411173555592004 0.3013214948275056 0  0.1503920612246686 0.252658552798053 0  0.1407371787724462 0.2442700623456801 0  0.1431093770171943 0.2599228455937608 0  0.09191660917863548 0.3399083220637153 0  0.1133943915886014 0.3302098901172357 0  0.1085927601152855 0.3576703429582752 0  0.1291780217515827 0.2400382025520897 0  0.1325512871714925 0.2548933203634119 0  0.06140001986584975 0.41 0  0.08484979611354741 0.3801877867628078 0  0.05922009696123734 0.3774661510110062 0  0.1314207338941352 0.2277905748945162 0  0.1208839583881551 0.2181173442085023 0  0.1226326835593179 0.232510509637589 0  0.09380266644077194 0.2576101652245613 0  0.1315669208937715 0.2153401624373302 0  0.0655461589766832 0.3354809920423228 0  0.132972307375135 0.2702075053542861 0  0.1310410255455362 0.2846992571580754 0  0.05202618668915951 0.3533574174069209 0  0.0341778808147269 0.3756898840960821 0  0.1452227811648972 0.2894657338151946 0  0.1613699074131162 0.2874965309748423 0  0.1497954449456231 0.3068853213507886 0  0.1440834152269613 0.2215292013094449 0  0.1427902997716637 0.232150825925387 0  0.1544083940701868 0.2357510323977007 0  0.1491192377089382 0.242360482241113 0  0.1502092543645781 0.2281484929999839 0  0 0.3807142857143437 0  0.1362495245357279 0.2216212078679356 0  0.1307646098417589 0.3010050716147269 0  0.1571318226843289 0.245420672996831 0  0.1664692005849321 0.2475709156417281 0  0.1604617194638936 0.2557893928243108 0  0.1550656232429279 0.2649227029563504 0  0.1583987151778488 0.2277368545647528 0  0.1629104300036858 0.2335315343742052 0  0.1123698019379044 0.2058991360802581 0  0.09921229729781815 0.216694589313852 0  0.1099554730833504 0.2189591019945387 0  0.04764878584873936 0.2783518915062873 0  0.02152627632804056 0.2799148982921386 0  0.1682222986671726 0.2386028198193036 0  0.1742197252833576 0.2428413052501257 0  0.1704873609912336 0.2583583661241701 0  0 0.29285714285744 0  0.01744870257335064 0.3130375866803607 0  0.03317213267821684 0.2576605437337542 0  0.08173043279897278 0.3240331352477369 0  0.1154525741111949 0.2885583797282378 0  0.1230762637185412 0.2499754423532209 0  0.1505393388476328 0.2073241380633295 0  0.1411840007379324 0.2116418969121702 0  0.09198816075892419 0.2415871005044956 0  0.07716692921624396 0.2463138536171241 0  0.1461228744239319 0.2700598172698123 0  0 0.2635714285718054 0  0.1752851331147261 0.2508158313127855 0  0.0844877739943079 0.2754278344382655 0  0.07558403699563009 0.2617898205222132 0  0.114265829400523 0.2274814703880861 0  0.0206009415950734 0.3930565358299628 0  0.07847443385504081 0.3566824448208936 0  0.07646641941334627 0.2901165423065792 0  0.09694893303991545 0.2918649843860019 0  0.08032811137534199 0.3068839858890652 0  0.09752865082683917 0.3073326190116618 0  0.1031728984437735 0.2318497950763309 0  0.05856578271688782 0.295628513006081 0  0.1125187550934686 0.3075252986550676 0  0.09922070399794995 0.322662239561371 0  0.1618784257508376 0.2400587086087321 0  0.05506284017382649 0.2425906156552861 0  0.05876177350501315 0.2607579702960333 0  0.1358250422386446 0.2356584720209315 0  0.1239298454268555 0.2616776157580057 0  0.04263766443679855 0.3932630345153014 0  0.1147948284867253 0.2412597685036574 0  0.08319468457824891 0.2132940804249223 0  0.07392371664175142 0.2310989703896346 0  0.09023810730875097 0.2272487027068034 0  0.1416315037575542 0.2787693322658609 0  0.1298722944302657 0.3189004895954476 0  0.1028747054530789 0.2468430767368829 0  0.1632849702488283 0.2726003915760372 0  0.1528547616279626 0.2778511520150422 0  0 0.41 0  0.03015443760436654 0.41 0  0.06676399188859611 0.2764140668439541 0  0.1647287152160364 0.2637534120846467 0  </DataArray>
</Points>
<Cells>
<DataArray  type="UInt32"  Name="connectivity"  format="ascii">0 1 2  3 4 5  0 6 1  7 8 9  10 1 11  12 13 14  15 16 17  18 19 13  20 21 22  23 24 25  7 8 26  27 23 24  10 1 28  29 9 30  31 32 2  33 34 35  4 36 5  31 1 2  37 38 39  19 13 14  4 36 40  41 32 2  31 1 28  37 36 42  43 33 30  44 45 46  12 14 47  48 49 38  50 51 52  53 11 54  55 56 45  57 45 46  58 11 54  37 38 40  58 11 59  29 19 14  12 44 46  53 60 54  15 61 28  6 1 59  7 62 9  18 19 63  64 65 5  37 23 42  66 26 67  37 13 39  29 68 14  41 0 2  31 32 22  69 60 54  36 65 5  43 33 35  57 45 70  7 26 71  72 26 67  73 24 25  72 26 71  41 32 74  12 46 47  15 28 75  48 38 40  62 9 30  76 77 78  64 3 5  43 62 30  79 77 78  36 65 42  37 36 40  68 14 47  56 45 70  73 80 52  7 62 77  53 11 81  79 82 83  49 38 84  85 60 86  10 11 81  76 77 71  4 48 40  55 45 84  37 23 87  27 23 42  29 19 88  16 82 83  20 22 89  18 90 25  18 90 63  12 44 39  37 13 87  7 77 71  53 60 86  91 92 93  43 62 82  51 80 52  29 68 94  72 67 86  66 92 93  21 17 75  15 16 83  43 35 95  85 67 86  27 65 42  73 90 80  16 82 95  15 17 75  73 90 25  12 13 39  91 51 93  66 92 67  18 23 87  58 69 54  43 82 95  44 38 84  44 45 84  1 11 59  6 58 59  18 13 87  8 90 63  8 90 96  62 77 82  76 81 78  85 92 67  44 38 39  97 34 98  8 26 96  10 81 78  97 98 47  18 23 25  68 98 47  29 9 88  31 28 75  31 22 75  99 100 74  99 41 74  79 77 82  79 61 78  19 63 88  79 61 83  20 100 89  51 80 93  29 30 94  8 9 88  76 81 101  21 22 75  49 55 84  57 46 102  10 61 78  90 80 96  33 34 98  66 26 96  68 98 94  15 61 83  10 61 28  33 30 94  8 63 88  53 81 101  50 24 52  32 89 74  66 80 93  100 89 74  66 80 96  33 98 94  32 22 89  73 24 52  76 71 101  72 86 101  46 47 102  97 47 102  72 71 101  53 86 101  </DataArray>
<DataArray  type="UInt32"  Name="offsets"  format="ascii">3 6 9 12 15 18 21 24 27 30 33 36 39 42 45 48 51 54 57 60 63 66 69 72 75 78 81 84 87 90 93 96 99 102 105 108 111 114 117 120 123 126 129 132 135 138 141 144 147 150 153 156 159 162 165 168 171 174 177 180 183 186 189 192 195 198 201 204 207 210 213 216 219 222 225 228 231 234 237 240 243 246 249 252 255 258 261 264 267 270 273 276 279 282 285 288 291 294 297 300 303 306 309 312 315 318 321 324 327 330 333 336 339 342 345 348 351 354 357 360 363 366 369 372 375 378 381 384 387 390 393 396 399 402 405 408 411 414 417 420 423 426 429 432 435 438 441 444 447 450 453 456 459 462 465 468 471 474 477 480 483 486 489 492 495 498 501 504 507 510 </DataArray>
<DataArray  type="UInt8"  Name="types"  format="ascii">5 5 5 5 5 5 5 5 5 5 5 5 5 5 5 5 5 5 5 5 5 5 5 5 5 5 5 5 5 5 5 5 5 5 5 5 5 5 5 5 5 5 5 5 5 5 5 5 5 5 5 5 5 5 5 5 5 5 5 5 5 5 5 5 5 5 5 5 5 5 5 5 5 5 5 5 5 5 5 5 5 5 5 5 5 5 5 5 5 5 5 5 5 5 5 5 5 5 5 5 5 5 5 5 5 5 5 5 5 5 5 5 5 5 5 5 5 5 5 5 5 5 5 5 5 5 5 5 5 5 5 5 5 5 5 5 5 5 5 5 5 5 5 5 5 5 5 5 5 5 5 5 5 5 5 5 5 5 5 5 5 5 5 5 5 5 5 5 5 5 </DataArray>
</Cells>
<PointData  Vectors="f_43-1"> 
<DataArray  type="Float64"  Name="f_43-1"  NumberOfComponents="3" format="ascii">0.0000000000000000e+00 0.0000000000000000e+00 0.0000000000000000e+00  2.3941364210358130e-08 -8.2517485051448751e-08 0.0000000000000000e+00  1.4377254183311337e-08 -4.9396397472989529e-08 0.0000000000000000e+00  0.0000000000000000e+00 0.0000000000000000e+00 0.0000000000000000e+00  0.0000000000000000e+00 0.0000000000000000e+00 0.0000000000000000e+00  1.0676668145606064e-08 -4.0861832881318391e-08 0.0000000000000000e+00  0.0000000000000000e+00 0.0000000000000000e+00 0.0000000000000000e+00  8.9273778980943401e-08 -3.0785534847346433e-07 0.0000000000000000e+00  8.0568787375456837e-08 -2.8004033407767774e-07 0.0000000000000000e+00  1.0994844838873260e-07 -3.7528527232651550e-07 0.0000000000000000e+00  5.1094883892359336e-08 -1.7600763847182798e-07 0.0000000000000000e+00  2.7141584383275704e-08 -9.4583348408022400e-08 0.0000000000000000e+00  8.9879448079380875e-08 -3.0226769581434433e-07 0.0000000000000000e+00  6.6021496369167192e-08 -2.2644830953902506e-07 0.0000000000000000e+00  1.1129563818204646e-07 -3.7528220099736070e-07 0.0000000000000000e+00  8.6053947230161739e-08 -2.9378295701056283e-07 0.0000000000000000e+00  1.3221673652439380e-07 -4.4993068001529983e-07 0.0000000000000000e+00  9.6265201706085007e-08 -3.2865237781419736e-07 0.0000000000000000e+00  5.9442872609036982e-08 -2.0889956167553164e-07 0.0000000000000000e+00  9.0425346801692480e-08 -3.0904904647262454e-07 0.0000000000000000e+00  0.0000000000000000e+00 0.0000000000000000e+00 0.0000000000000000e+00  3.9095519981866243e-08 -1.3368444653406301e-07 0.0000000000000000e+00  2.5396145151703357e-08 -8.6932197059717133e-08 0.0000000000000000e+00  3.9228693985216908e-08 -1.4323043162019887e-07 0.0000000000000000e+00  3.3174387717405934e-08 -1.3125417823556341e-07 0.0000000000000000e+00  4.8684713328502564e-08 -1.7696386836736702e-07 0.0000000000000000e+00  6.5727009621018309e-08 -2.3232029892470428e-07 0.0000000000000000e+00  2.5230519231152788e-08 -1.0015824145666682e-07 0.0000000000000000e+00  5.3876289800672553e-08 -1.8466609151863111e-07 0.0000000000000000e+00  1.2625977865491379e-07 -4.2726682901990361e-07 0.0000000000000000e+00  1.5183191419223567e-07 -5.1290407164608353e-07 0.0000000000000000e+00  3.4103817669007715e-08 -1.1691283621012394e-07 0.0000000000000000e+00  1.3942333469364516e-08 -4.7799894559575671e-08 0.0000000000000000e+00  2.0010344171773719e-07 -6.7167676884852242e-07 0.0000000000000000e+00  2.5633282605420460e-07 -8.5369233088352302e-07 0.0000000000000000e+00  2.4721049001112936e-07 -8.3208336843874534e-07 0.0000000000000000e+00  1.9216434837288013e-08 -7.0622394956872231e-08 0.0000000000000000e+00  3.7365697452098817e-08 -1.3123775824013434e-07 0.0000000000000000e+00  2.8860696513278373e-08 -9.8470580307227989e-08 0.0000000000000000e+00  5.5685532899388321e-08 -1.8943530709191941e-07 0.0000000000000000e+00  1.9458786080659550e-08 -6.8273612991761181e-08 0.0000000000000000e+00  0.0000000000000000e+00 0.0000000000000000e+00 0.0000000000000000e+00  2.7894562455593408e-08 -1.0432100822688524e-07 0.0000000000000000e+00  1.7352112269219636e-07 -5.8643892684953188e-07 0.0000000000000000e+00  5.7626317173288000e-08 -1.9344620880542911e-07 0.0000000000000000e+00  5.3729213482014365e-08 -1.7825533721788510e-07 0.0000000000000000e+00  1.0401135596335664e-07 -3.4592472923660131e-07 0.0000000000000000e+00  1.4331598340865219e-07 -4.7785685798337508e-07 0.0000000000000000e+00  0.0000000000000000e+00 0.0000000000000000e+00 0.0000000000000000e+00  0.0000000000000000e+00 0.0000000000000000e+00 0.0000000000000000e+00  2.6794208611549068e-08 -1.2095117627958494e-07 0.0000000000000000e+00  3.4451407983569791e-08 -1.4220669918481609e-07 0.0000000000000000e+00  3.6077476892198841e-08 -1.4435238078509946e-07 0.0000000000000000e+00  3.6274398224480360e-08 -1.2829468344313740e-07 0.0000000000000000e+00  1.5857651531157374e-08 -5.6400470350050659e-08 0.0000000000000000e+00  0.0000000000000000e+00 0.0000000000000000e+00 0.0000000000000000e+00  0.0000000000000000e+00 0.0000000000000000e+00 0.0000000000000000e+00  1.2270270783687076e-07 -4.0409634227656339e-07 0.0000000000000000e+00  0.0000000000000000e+00 0.0000000000000000e+00 0.0000000000000000e+00  1.3489598000075212e-08 -4.6835463757651563e-08 0.0000000000000000e+00  2.1532397471723836e-08 -7.9137968488574010e-08 0.0000000000000000e+00  7.7324481843365595e-08 -2.6457098251140727e-07 0.0000000000000000e+00  1.2458348206094172e-07 -4.2377833531385641e-07 0.0000000000000000e+00  7.5836697036507456e-08 -2.6345991175908869e-07 0.0000000000000000e+00  0.0000000000000000e+00 0.0000000000000000e+00 0.0000000000000000e+00  1.3786754302632369e-08 -5.5687291121836906e-08 0.0000000000000000e+00  5.1091156317530292e-08 -1.8765292297109826e-07 0.0000000000000000e+00  4.6159795286676364e-08 -1.6971552142036362e-07 0.0000000000000000e+00  1.4785501027629204e-07 -4.9585013312075317e-07 0.0000000000000000e+00  0.0000000000000000e+00 0.0000000000000000e+00 0.0000000000000000e+00  6.0395140077263180e-08 -1.9823255994160416e-07 0.0000000000000000e+00  6.9984342203009773e-08 -2.4372999969799233e-07 0.0000000000000000e+00  5.3844864263677247e-08 -1.9179117574877705e-07 0.0000000000000000e+00  4.3552493393581992e-08 -1.6418109554801712e-07 0.0000000000000000e+00  4.1821813573228585e-09 -1.4338322152955420e-08 0.0000000000000000e+00  5.6559949134268690e-08 -1.9338268201419272e-07 0.0000000000000000e+00  6.7632888147942786e-08 -2.3404612081442447e-07 0.0000000000000000e+00  9.5665324750948124e-08 -3.2784931832303690e-07 0.0000000000000000e+00  7.6243350240799756e-08 -2.6173289240825777e-07 0.0000000000000000e+00  1.0260468559222627e-07 -3.5033568174130180e-07 0.0000000000000000e+00  4.6767442868926479e-08 -1.7557613893030056e-07 0.0000000000000000e+00  4.9387059421419193e-08 -1.7153936488548523e-07 0.0000000000000000e+00  1.3182326281579810e-07 -4.4809721908355860e-07 0.0000000000000000e+00  1.0573131568349460e-07 -3.6050063312637313e-07 0.0000000000000000e+00  2.6863241217927268e-08 -9.0131319970903145e-08 0.0000000000000000e+00  3.1444993676721762e-08 -1.1894949779721157e-07 0.0000000000000000e+00  4.0288747394678681e-08 -1.4535214521174957e-07 0.0000000000000000e+00  4.9441796730701444e-08 -1.7395045919553903e-07 0.0000000000000000e+00  9.7513770698013946e-08 -3.3392728164053628e-07 0.0000000000000000e+00  9.0856190910276931e-09 -3.1121519635297548e-08 0.0000000000000000e+00  5.9799509481724285e-08 -2.1377193053144348e-07 0.0000000000000000e+00  3.0235172449799483e-08 -1.3012942914409273e-07 0.0000000000000000e+00  3.6191053692896684e-08 -1.4096584574199894e-07 0.0000000000000000e+00  3.9878036041589913e-08 -1.5560400038603253e-07 0.0000000000000000e+00  1.6386520150400354e-07 -5.5065443518426034e-07 0.0000000000000000e+00  1.7946297733170077e-07 -6.0827828559380765e-07 0.0000000000000000e+00  6.1472287736099271e-08 -2.1989308742388900e-07 0.0000000000000000e+00  1.9806145011460613e-07 -6.5647540334852347e-07 0.0000000000000000e+00  1.9031176245336806e-07 -6.3540109404673879e-07 0.0000000000000000e+00  0.0000000000000000e+00 0.0000000000000000e+00 0.0000000000000000e+00  0.0000000000000000e+00 0.0000000000000000e+00 0.0000000000000000e+00  5.2671782487584828e-08 -1.8507709479172268e-07 0.0000000000000000e+00  1.5202183201419154e-07 -5.0304421951495145e-07 0.0000000000000000e+00  </DataArray> 
</PointData> 
</Piece>
</UnstructuredGrid>
</VTKFile>