<?xml version="1.0"?>
<VTKFile type="UnstructuredGrid"  version="0.1"  >
<UnstructuredGrid>
<Piece  NumberOfPoints="103" NumberOfCells="170">
<Points>
<DataArray  type="Float64"  NumberOfComponents="3"  format="ascii">0 0.3514285714286952 0  0.03215830272795324 0.3311110896359255 0  0.02400550655420258 0.3538155845945724 0  0.1521457199348437 0.2144902684393899 0  0.1547844879126531 0.221343792228163 0  0.1460074103989341 0.2155962236814484 0  0 0.3221428571430699 0  0.1022962111550141 0.273832470550381 0  0.1121786756446853 0.257597694764058 0  0.1185619469878228 0.2730177051871591 0  0.05939492550527375 0.3149957962361826 0  0.03411173555592004 0.3013214948275056 0  0.1503920612246686 0.252658552798053 0  0.1407371787724462 0.2442700623456801 0  0.1431093770171943 0.2599228455937608 0  0.09191660917863548 0.3399083220637153 0  0.1133943915886014 0.3302098901172357 0  0.1085927601152855 0.3576703429582752 0  0.1291780217515827 0.2400382025520897 0  0.1325512871714925 0.2548933203634119 0  0.06140001986584975 0.41 0  0.08484979611354741 0.3801877867628078 0  0.05922009696123734 0.3774661510110062 0  0.1314207338941352 0.2277905748945162 0  0.1208839583881551 0.2181173442085023 0  0.1226326835593179 0.232510509637589 0  0.09380266644077194 0.2576101652245613 0  0.1315669208937715 0.2153401624373302 0  0.0655461589766832 0.3354809920423228 0  0.132972307375135 0.2702075053542861 0  0.1310410255455362 0.2846992571580754 0  0.05202618668915951 0.3533574174069209 0  0.0341778808147269 0.3756898840960821 0  0.1452227811648972 0.2894657338151946 0  0.1613699074131162 0.2874965309748423 0  0.1497954449456231 0.3068853213507886 0  0.1440834152269613 0.2215292013094449 0  0.1427902997716637 0.232150825925387 0  0.1544083940701868 0.2357510323977007 0  0.1491192377089382 0.242360482241113 0  0.1502092543645781 0.2281484929999839 0  0 0.3807142857143437 0  0.1362495245357279 0.2216212078679356 0  0.1307646098417589 0.3010050716147269 0  0.1571318226843289 0.245420672996831 0  0.1664692005849321 0.2475709156417281 0  0.1604617194638936 0.2557893928243108 0  0.1550656232429279 0.2649227029563504 0  0.1583987151778488 0.2277368545647528 0  0.1629104300036858 0.2335315343742052 0  0.1123698019379044 0.2058991360802581 0  0.09921229729781815 0.216694589313852 0  0.1099554730833504 0.2189591019945387 0  0.04764878584873936 0.2783518915062873 0  0.02152627632804056 0.2799148982921386 0  0.1682222986671726 0.2386028198193036 0  0.1742197252833576 0.2428413052501257 0  0.1704873609912336 0.2583583661241701 0  0 0.29285714285744 0  0.01744870257335064 0.3130375866803607 0  0.03317213267821684 0.2576605437337542 0  0.08173043279897278 0.3240331352477369 0  0.1154525741111949 0.2885583797282378 0  0.1230762637185412 0.2499754423532209 0  0.1505393388476328 0.2073241380633295 0  0.1411840007379324 0.2116418969121702 0  0.09198816075892419 0.2415871005044956 0  0.07716692921624396 0.2463138536171241 0  0.1461228744239319 0.2700598172698123 0  0 0.2635714285718054 0  0.1752851331147261 0.2508158313127855 0  0.0844877739943079 0.2754278344382655 0  0.07558403699563009 0.2617898205222132 0  0.114265829400523 0.2274814703880861 0  0.0206009415950734 0.3930565358299628 0  0.07847443385504081 0.3566824448208936 0  0.07646641941334627 0.2901165423065792 0  0.09694893303991545 0.2918649843860019 0  0.08032811137534199 0.3068839858890652 0  0.09752865082683917 0.3073326190116618 0  0.1031728984437735 0.2318497950763309 0  0.05856578271688782 0.295628513006081 0  0.1125187550934686 0.3075252986550676 0  0.09922070399794995 0.322662239561371 0  0.1618784257508376 0.2400587086087321 0  0.05506284017382649 0.2425906156552861 0  0.05876177350501315 0.2607579702960333 0  0.1358250422386446 0.2356584720209315 0  0.1239298454268555 0.2616776157580057 0  0.04263766443679855 0.3932630345153014 0  0.1147948284867253 0.2412597685036574 0  0.08319468457824891 0.2132940804249223 0  0.07392371664175142 0.2310989703896346 0  0.09023810730875097 0.2272487027068034 0  0.1416315037575542 0.2787693322658609 0  0.1298722944302657 0.3189004895954476 0  0.1028747054530789 0.2468430767368829 0  0.1632849702488283 0.2726003915760372 0  0.1528547616279626 0.2778511520150422 0  0 0.41 0  0.03015443760436654 0.41 0  0.06676399188859611 0.2764140668439541 0  0.1647287152160364 0.2637534120846467 0  </DataArray>
</Points>
<Cells>
<DataArray  type="UInt32"  Name="connectivity"  format="ascii">0 1 2  3 4 5  0 6 1  7 8 9  10 1 11  12 13 14  15 16 17  18 19 13  20 21 22  23 24 25  7 8 26  27 23 24  10 1 28  29 9 30  31 32 2  33 34 35  4 36 5  31 1 2  37 38 39  19 13 14  4 36 40  41 32 2  31 1 28  37 36 42  43 33 30  44 45 46  12 14 47  48 49 38  50 51 52  53 11 54  55 56 45  57 45 46  58 11 54  37 38 40  58 11 59  29 19 14  12 44 46  53 60 54  15 61 28  6 1 59  7 62 9  18 19 63  64 65 5  37 23 42  66 26 67  37 13 39  29 68 14  41 0 2  31 32 22  69 60 54  36 65 5  43 33 35  57 45 70  7 26 71  72 26 67  73 24 25  72 26 71  41 32 74  12 46 47  15 28 75  48 38 40  62 9 30  76 77 78  64 3 5  43 62 30  79 77 78  36 65 42  37 36 40  68 14 47  56 45 70  73 80 52  7 62 77  53 11 81  79 82 83  49 38 84  85 60 86  10 11 81  76 77 71  4 48 40  55 45 84  37 23 87  27 23 42  29 19 88  16 82 83  20 22 89  18 90 25  18 90 63  12 44 39  37 13 87  7 77 71  53 60 86  91 92 93  43 62 82  51 80 52  29 68 94  72 67 86  66 92 93  21 17 75  15 16 83  43 35 95  85 67 86  27 65 42  73 90 80  16 82 95  15 17 75  73 90 25  12 13 39  91 51 93  66 92 67  18 23 87  58 69 54  43 82 95  44 38 84  44 45 84  1 11 59  6 58 59  18 13 87  8 90 63  8 90 96  62 77 82  76 81 78  85 92 67  44 38 39  97 34 98  8 26 96  10 81 78  97 98 47  18 23 25  68 98 47  29 9 88  31 28 75  31 22 75  99 100 74  99 41 74  79 77 82  79 61 78  19 63 88  79 61 83  20 100 89  51 80 93  29 30 94  8 9 88  76 81 101  21 22 75  49 55 84  57 46 102  10 61 78  90 80 96  33 34 98  66 26 96  68 98 94  15 61 83  10 61 28  33 30 94  8 63 88  53 81 101  50 24 52  32 89 74  66 80 93  100 89 74  66 80 96  33 98 94  32 22 89  73 24 52  76 71 101  72 86 101  46 47 102  97 47 102  72 71 101  53 86 101  </DataArray>
<DataArray  type="UInt32"  Name="offsets"  format="ascii">3 6 9 12 15 18 21 24 27 30 33 36 39 42 45 48 51 54 57 60 63 66 69 72 75 78 81 84 87 90 93 96 99 102 105 108 111 114 117 120 123 126 129 132 135 138 141 144 147 150 153 156 159 162 165 168 171 174 177 180 183 186 189 192 195 198 201 204 207 210 213 216 219 222 225 228 231 234 237 240 243 246 249 252 255 258 261 264 267 270 273 276 279 282 285 288 291 294 297 300 303 306 309 312 315 318 321 324 327 330 333 336 339 342 345 348 351 354 357 360 363 366 369 372 375 378 381 384 387 390 393 396 399 402 405 408 411 414 417 420 423 426 429 432 435 438 441 444 447 450 453 456 459 462 465 468 471 474 477 480 483 486 489 492 495 498 501 504 507 510 </DataArray>
<DataArray  type="UInt8"  Name="types"  format="ascii">5 5 5 5 5 5 5 5 5 5 5 5 5 5 5 5 5 5 5 5 5 5 5 5 5 5 5 5 5 5 5 5 5 5 5 5 5 5 5 5 5 5 5 5 5 5 5 5 5 5 5 5 5 5 5 5 5 5 5 5 5 5 5 5 5 5 5 5 5 5 5 5 5 5 5 5 5 5 5 5 5 5 5 5 5 5 5 5 5 5 5 5 5 5 5 5 5 5 5 5 5 5 5 5 5 5 5 5 5 5 5 5 5 5 5 5 5 5 5 5 5 5 5 5 5 5 5 5 5 5 5 5 5 5 5 5 5 5 5 5 5 5 5 5 5 5 5 5 5 5 5 5 5 5 5 5 5 5 5 5 5 5 5 5 5 5 5 5 5 5 </DataArray>
</Cells>
<PointData  Vectors="f_43-1"> 
<DataArray  type="Float64"  Name="f_43-1"  NumberOfComponents="3" format="ascii">0.0000000000000000e+00 0.0000000000000000e+00 0.0000000000000000e+00  -1.7332026472791693e-07 6.2762365720022502e-07 0.0000000000000000e+00  -1.0424769472771271e-07 3.7538593909952856e-07 0.0000000000000000e+00  0.0000000000000000e+00 0.0000000000000000e+00 0.0000000000000000e+00  0.0000000000000000e+00 0.0000000000000000e+00 0.0000000000000000e+00  -7.4367131335132019e-08 3.1894564468003586e-07 0.0000000000000000e+00  0.0000000000000000e+00 0.0000000000000000e+00 0.0000000000000000e+00  -6.4176908609371999e-07 2.3315242732512108e-06 0.0000000000000000e+00  -5.7707951817767721e-07 2.1250186452275471e-06 0.0000000000000000e+00  -7.9062063915004988e-07 2.8276562250696460e-06 0.0000000000000000e+00  -3.6936095519423031e-07 1.3366954414892432e-06 0.0000000000000000e+00  -1.9575174825097671e-07 7.2203272332318631e-07 0.0000000000000000e+00  -6.4428823230637595e-07 2.2582164829229217e-06 0.0000000000000000e+00  -4.7228265277732820e-07 1.7062642230322650e-06 0.0000000000000000e+00  -7.9863988907508664e-07 2.8082574859513414e-06 0.0000000000000000e+00  -6.2326220964662490e-07 2.2189134330893391e-06 0.0000000000000000e+00  -9.5658161678281376e-07 3.3879514287796409e-06 0.0000000000000000e+00  -6.9774943756962138e-07 2.4789666672414389e-06 0.0000000000000000e+00  -4.2361495660414874e-07 1.5890819367550499e-06 0.0000000000000000e+00  -6.4822316984281681e-07 2.3269613285781981e-06 0.0000000000000000e+00  0.0000000000000000e+00 0.0000000000000000e+00 0.0000000000000000e+00  -2.8367704876590582e-07 1.0109192495791232e-06 0.0000000000000000e+00  -1.8429181951705977e-07 6.5876989969975480e-07 0.0000000000000000e+00  -2.7691088907262429e-07 1.1030484986453239e-06 0.0000000000000000e+00  -2.2931585175151805e-07 1.0353168299631078e-06 0.0000000000000000e+00  -3.4436210552344636e-07 1.3617302567895292e-06 0.0000000000000000e+00  -4.6983589072784519e-07 1.7755395194572418e-06 0.0000000000000000e+00  -1.7408469365704567e-07 7.9025516149216252e-07 0.0000000000000000e+00  -3.9018194152926622e-07 1.3994730796426674e-06 0.0000000000000000e+00  -9.0745628876684850e-07 3.2045710907413496e-06 0.0000000000000000e+00  -1.0931659884952011e-06 3.8447532766511061e-06 0.0000000000000000e+00  -2.4726331179555642e-07 8.8678182973634201e-07 0.0000000000000000e+00  -1.0118019359524624e-07 3.6286803995709355e-07 0.0000000000000000e+00  -1.4399990277988723e-06 5.0150643093387790e-06 0.0000000000000000e+00  -1.8409153472263881e-06 6.3430028764890336e-06 0.0000000000000000e+00  -1.7816262180229813e-06 6.2169702084344325e-06 0.0000000000000000e+00  -1.3528574732548474e-07 5.4462795438170281e-07 0.0000000000000000e+00  -2.6590363424437284e-07 9.9723481700253320e-07 0.0000000000000000e+00  -2.0632152121119784e-07 7.3990961822964572e-07 0.0000000000000000e+00  -3.9849774993592817e-07 1.4221021623756173e-06 0.0000000000000000e+00  -1.3842512106244262e-07 5.1843631853280650e-07 0.0000000000000000e+00  0.0000000000000000e+00 0.0000000000000000e+00 0.0000000000000000e+00  -1.9560898545559495e-07 8.0908733513140384e-07 0.0000000000000000e+00  -1.2513939464612900e-06 4.3968276130470299e-06 0.0000000000000000e+00  -4.1273335171250977e-07 1.4435500110708101e-06 0.0000000000000000e+00  -3.8462788301812727e-07 1.3223846617519211e-06 0.0000000000000000e+00  -7.4523099717515432e-07 2.5698191230501587e-06 0.0000000000000000e+00  -1.0280310483693694e-06 3.5550800230031392e-06 0.0000000000000000e+00  0.0000000000000000e+00 0.0000000000000000e+00 0.0000000000000000e+00  0.0000000000000000e+00 0.0000000000000000e+00 0.0000000000000000e+00  -1.7761254891664335e-07 9.8589321462504965e-07 0.0000000000000000e+00  -2.3553629395316769e-07 1.1357672111152496e-06 0.0000000000000000e+00  -2.4879297684536841e-07 1.1428662469368858e-06 0.0000000000000000e+00  -2.6031389605442746e-07 9.8358214057999205e-07 0.0000000000000000e+00  -1.1374497255236904e-07 4.3357069924316911e-07 0.0000000000000000e+00  0.0000000000000000e+00 0.0000000000000000e+00 0.0000000000000000e+00  0.0000000000000000e+00 0.0000000000000000e+00 0.0000000000000000e+00  -8.7777195360428696e-07 2.9857728315243846e-06 0.0000000000000000e+00  0.0000000000000000e+00 0.0000000000000000e+00 0.0000000000000000e+00  -9.7452986168192336e-08 3.5725207466817898e-07 0.0000000000000000e+00  -1.5298465417287919e-07 6.1434295442727079e-07 0.0000000000000000e+00  -5.5946738809143643e-07 2.0014597161879022e-06 0.0000000000000000e+00  -8.9781956197919648e-07 3.1897760032316316e-06 0.0000000000000000e+00  -5.4237766416755885e-07 1.9970712018993829e-06 0.0000000000000000e+00  0.0000000000000000e+00 0.0000000000000000e+00 0.0000000000000000e+00  -9.4582424970281200e-08 4.4121824301921442e-07 0.0000000000000000e+00  -3.6157683952930375e-07 1.4518526625557307e-06 0.0000000000000000e+00  -3.2702801357276805e-07 1.3147904252527997e-06 0.0000000000000000e+00  -1.0619412873853810e-06 3.7009023245071410e-06 0.0000000000000000e+00  0.0000000000000000e+00 0.0000000000000000e+00 0.0000000000000000e+00  -4.3161773110024680e-07 1.4620294883087261e-06 0.0000000000000000e+00  -5.0284189481044727e-07 1.8548252530260277e-06 0.0000000000000000e+00  -3.8482938685538335e-07 1.4713749234789836e-06 0.0000000000000000e+00  -3.0537989846909097e-07 1.2781252930378201e-06 0.0000000000000000e+00  -3.0362986980609045e-08 1.0889432671499989e-07 0.0000000000000000e+00  -4.1007773148217822e-07 1.4629479989015495e-06 0.0000000000000000e+00  -4.8731980948738842e-07 1.7782865716578741e-06 0.0000000000000000e+00  -6.8976626781351657e-07 2.4785294727065498e-06 0.0000000000000000e+00  -5.5072790760211346e-07 1.9825199628877226e-06 0.0000000000000000e+00  -7.4114981618888598e-07 2.6448632694190669e-06 0.0000000000000000e+00  -3.2865110287071567e-07 1.3662472279767936e-06 0.0000000000000000e+00  -3.5602694357595548e-07 1.3065265931728211e-06 0.0000000000000000e+00  -9.5195456568064422e-07 3.3728656119813675e-06 0.0000000000000000e+00  -7.6475710831331253e-07 2.7198342076522686e-06 0.0000000000000000e+00  -1.9232136995716931e-07 6.7232575469152822e-07 0.0000000000000000e+00  -2.2136285547013079e-07 9.3038885164652725e-07 0.0000000000000000e+00  -2.8732835123422708e-07 1.1207591128771512e-06 0.0000000000000000e+00  -3.5196589397020189e-07 1.3231322700988672e-06 0.0000000000000000e+00  -6.9980153290441689e-07 2.5179258161012383e-06 0.0000000000000000e+00  -6.5958372728152231e-08 2.3609987922569591e-07 0.0000000000000000e+00  -4.2515140279716570e-07 1.6371840433286380e-06 0.0000000000000000e+00  -2.0418003617390258e-07 1.0510117187923920e-06 0.0000000000000000e+00  -2.5231430728068075e-07 1.1105425614878390e-06 0.0000000000000000e+00  -2.7751882203505682e-07 1.2252307466438660e-06 0.0000000000000000e+00  -1.1783257522449474e-06 4.1149259560930202e-06 0.0000000000000000e+00  -1.2964763315998385e-06 4.5662553602599600e-06 0.0000000000000000e+00  -4.3759079807602510e-07 1.6859488307146151e-06 0.0000000000000000e+00  -1.4198815616591594e-06 4.8669851352928330e-06 0.0000000000000000e+00  -1.3669266189550394e-06 4.7302875054515788e-06 0.0000000000000000e+00  0.0000000000000000e+00 0.0000000000000000e+00 0.0000000000000000e+00  0.0000000000000000e+00 0.0000000000000000e+00 0.0000000000000000e+00  -3.7815924947010945e-07 1.4143987579955807e-06 0.0000000000000000e+00  -1.0889135181158156e-06 3.7266119228462103e-06 0.0000000000000000e+00  </DataArray> 
</PointData> 
</Piece>
</UnstructuredGrid>
</VTKFile>