<?xml version="1.0"?>
<VTKFile type="UnstructuredGrid"  version="0.1"  >
<UnstructuredGrid>
<Piece  NumberOfPoints="103" NumberOfCells="170">
<Points>
<DataArray  type="Float64"  NumberOfComponents="3"  format="ascii">0 0.3514285714286952 0  0.03215830272795324 0.3311110896359255 0  0.02400550655420258 0.3538155845945724 0  0.1521457199348437 0.2144902684393899 0  0.1547844879126531 0.221343792228163 0  0.1460074103989341 0.2155962236814484 0  0 0.3221428571430699 0  0.1022962111550141 0.273832470550381 0  0.1121786756446853 0.257597694764058 0  0.1185619469878228 0.2730177051871591 0  0.05939492550527375 0.3149957962361826 0  0.03411173555592004 0.3013214948275056 0  0.1503920612246686 0.252658552798053 0  0.1407371787724462 0.2442700623456801 0  0.1431093770171943 0.2599228455937608 0  0.09191660917863548 0.3399083220637153 0  0.1133943915886014 0.3302098901172357 0  0.1085927601152855 0.3576703429582752 0  0.1291780217515827 0.2400382025520897 0  0.1325512871714925 0.2548933203634119 0  0.06140001986584975 0.41 0  0.08484979611354741 0.3801877867628078 0  0.05922009696123734 0.3774661510110062 0  0.1314207338941352 0.2277905748945162 0  0.1208839583881551 0.2181173442085023 0  0.1226326835593179 0.232510509637589 0  0.09380266644077194 0.2576101652245613 0  0.1315669208937715 0.2153401624373302 0  0.0655461589766832 0.3354809920423228 0  0.132972307375135 0.2702075053542861 0  0.1310410255455362 0.2846992571580754 0  0.05202618668915951 0.3533574174069209 0  0.0341778808147269 0.3756898840960821 0  0.1452227811648972 0.2894657338151946 0  0.1613699074131162 0.2874965309748423 0  0.1497954449456231 0.3068853213507886 0  0.1440834152269613 0.2215292013094449 0  0.1427902997716637 0.232150825925387 0  0.1544083940701868 0.2357510323977007 0  0.1491192377089382 0.242360482241113 0  0.1502092543645781 0.2281484929999839 0  0 0.3807142857143437 0  0.1362495245357279 0.2216212078679356 0  0.1307646098417589 0.3010050716147269 0  0.1571318226843289 0.245420672996831 0  0.1664692005849321 0.2475709156417281 0  0.1604617194638936 0.2557893928243108 0  0.1550656232429279 0.2649227029563504 0  0.1583987151778488 0.2277368545647528 0  0.1629104300036858 0.2335315343742052 0  0.1123698019379044 0.2058991360802581 0  0.09921229729781815 0.216694589313852 0  0.1099554730833504 0.2189591019945387 0  0.04764878584873936 0.2783518915062873 0  0.02152627632804056 0.2799148982921386 0  0.1682222986671726 0.2386028198193036 0  0.1742197252833576 0.2428413052501257 0  0.1704873609912336 0.2583583661241701 0  0 0.29285714285744 0  0.01744870257335064 0.3130375866803607 0  0.03317213267821684 0.2576605437337542 0  0.08173043279897278 0.3240331352477369 0  0.1154525741111949 0.2885583797282378 0  0.1230762637185412 0.2499754423532209 0  0.1505393388476328 0.2073241380633295 0  0.1411840007379324 0.2116418969121702 0  0.09198816075892419 0.2415871005044956 0  0.07716692921624396 0.2463138536171241 0  0.1461228744239319 0.2700598172698123 0  0 0.2635714285718054 0  0.1752851331147261 0.2508158313127855 0  0.0844877739943079 0.2754278344382655 0  0.07558403699563009 0.2617898205222132 0  0.114265829400523 0.2274814703880861 0  0.0206009415950734 0.3930565358299628 0  0.07847443385504081 0.3566824448208936 0  0.07646641941334627 0.2901165423065792 0  0.09694893303991545 0.2918649843860019 0  0.08032811137534199 0.3068839858890652 0  0.09752865082683917 0.3073326190116618 0  0.1031728984437735 0.2318497950763309 0  0.05856578271688782 0.295628513006081 0  0.1125187550934686 0.3075252986550676 0  0.09922070399794995 0.322662239561371 0  0.1618784257508376 0.2400587086087321 0  0.05506284017382649 0.2425906156552861 0  0.05876177350501315 0.2607579702960333 0  0.1358250422386446 0.2356584720209315 0  0.1239298454268555 0.2616776157580057 0  0.04263766443679855 0.3932630345153014 0  0.1147948284867253 0.2412597685036574 0  0.08319468457824891 0.2132940804249223 0  0.07392371664175142 0.2310989703896346 0  0.09023810730875097 0.2272487027068034 0  0.1416315037575542 0.2787693322658609 0  0.1298722944302657 0.3189004895954476 0  0.1028747054530789 0.2468430767368829 0  0.1632849702488283 0.2726003915760372 0  0.1528547616279626 0.2778511520150422 0  0 0.41 0  0.03015443760436654 0.41 0  0.06676399188859611 0.2764140668439541 0  0.1647287152160364 0.2637534120846467 0  </DataArray>
</Points>
<Cells>
<DataArray  type="UInt32"  Name="connectivity"  format="ascii">0 1 2  3 4 5  0 6 1  7 8 9  10 1 11  12 13 14  15 16 17  18 19 13  20 21 22  23 24 25  7 8 26  27 23 24  10 1 28  29 9 30  31 32 2  33 34 35  4 36 5  31 1 2  37 38 39  19 13 14  4 36 40  41 32 2  31 1 28  37 36 42  43 33 30  44 45 46  12 14 47  48 49 38  50 51 52  53 11 54  55 56 45  57 45 46  58 11 54  37 38 40  58 11 59  29 19 14  12 44 46  53 60 54  15 61 28  6 1 59  7 62 9  18 19 63  64 65 5  37 23 42  66 26 67  37 13 39  29 68 14  41 0 2  31 32 22  69 60 54  36 65 5  43 33 35  57 45 70  7 26 71  72 26 67  73 24 25  72 26 71  41 32 74  12 46 47  15 28 75  48 38 40  62 9 30  76 77 78  64 3 5  43 62 30  79 77 78  36 65 42  37 36 40  68 14 47  56 45 70  73 80 52  7 62 77  53 11 81  79 82 83  49 38 84  85 60 86  10 11 81  76 77 71  4 48 40  55 45 84  37 23 87  27 23 42  29 19 88  16 82 83  20 22 89  18 90 25  18 90 63  12 44 39  37 13 87  7 77 71  53 60 86  91 92 93  43 62 82  51 80 52  29 68 94  72 67 86  66 92 93  21 17 75  15 16 83  43 35 95  85 67 86  27 65 42  73 90 80  16 82 95  15 17 75  73 90 25  12 13 39  91 51 93  66 92 67  18 23 87  58 69 54  43 82 95  44 38 84  44 45 84  1 11 59  6 58 59  18 13 87  8 90 63  8 90 96  62 77 82  76 81 78  85 92 67  44 38 39  97 34 98  8 26 96  10 81 78  97 98 47  18 23 25  68 98 47  29 9 88  31 28 75  31 22 75  99 100 74  99 41 74  79 77 82  79 61 78  19 63 88  79 61 83  20 100 89  51 80 93  29 30 94  8 9 88  76 81 101  21 22 75  49 55 84  57 46 102  10 61 78  90 80 96  33 34 98  66 26 96  68 98 94  15 61 83  10 61 28  33 30 94  8 63 88  53 81 101  50 24 52  32 89 74  66 80 93  100 89 74  66 80 96  33 98 94  32 22 89  73 24 52  76 71 101  72 86 101  46 47 102  97 47 102  72 71 101  53 86 101  </DataArray>
<DataArray  type="UInt32"  Name="offsets"  format="ascii">3 6 9 12 15 18 21 24 27 30 33 36 39 42 45 48 51 54 57 60 63 66 69 72 75 78 81 84 87 90 93 96 99 102 105 108 111 114 117 120 123 126 129 132 135 138 141 144 147 150 153 156 159 162 165 168 171 174 177 180 183 186 189 192 195 198 201 204 207 210 213 216 219 222 225 228 231 234 237 240 243 246 249 252 255 258 261 264 267 270 273 276 279 282 285 288 291 294 297 300 303 306 309 312 315 318 321 324 327 330 333 336 339 342 345 348 351 354 357 360 363 366 369 372 375 378 381 384 387 390 393 396 399 402 405 408 411 414 417 420 423 426 429 432 435 438 441 444 447 450 453 456 459 462 465 468 471 474 477 480 483 486 489 492 495 498 501 504 507 510 </DataArray>
<DataArray  type="UInt8"  Name="types"  format="ascii">5 5 5 5 5 5 5 5 5 5 5 5 5 5 5 5 5 5 5 5 5 5 5 5 5 5 5 5 5 5 5 5 5 5 5 5 5 5 5 5 5 5 5 5 5 5 5 5 5 5 5 5 5 5 5 5 5 5 5 5 5 5 5 5 5 5 5 5 5 5 5 5 5 5 5 5 5 5 5 5 5 5 5 5 5 5 5 5 5 5 5 5 5 5 5 5 5 5 5 5 5 5 5 5 5 5 5 5 5 5 5 5 5 5 5 5 5 5 5 5 5 5 5 5 5 5 5 5 5 5 5 5 5 5 5 5 5 5 5 5 5 5 5 5 5 5 5 5 5 5 5 5 5 5 5 5 5 5 5 5 5 5 5 5 5 5 5 5 5 5 </DataArray>
</Cells>
<PointData  Vectors="f_43-1"> 
<DataArray  type="Float64"  Name="f_43-1"  NumberOfComponents="3" format="ascii">0.0000000000000000e+00 0.0000000000000000e+00 0.0000000000000000e+00  1.1940974252127740e-08 -4.5784196896418519e-08 0.0000000000000000e+00  7.1708144919659626e-09 -2.7416858266958462e-08 0.0000000000000000e+00  0.0000000000000000e+00 0.0000000000000000e+00 0.0000000000000000e+00  0.0000000000000000e+00 0.0000000000000000e+00 0.0000000000000000e+00  5.3033716307424799e-09 -2.2436981688419654e-08 0.0000000000000000e+00  0.0000000000000000e+00 0.0000000000000000e+00 0.0000000000000000e+00  4.4713630380227638e-08 -1.7118155545249697e-07 0.0000000000000000e+00  4.0353625758579429e-08 -1.5559374935628734e-07 0.0000000000000000e+00  5.5205303213154337e-08 -2.0914900987730781e-07 0.0000000000000000e+00  2.5515310573370459e-08 -9.7730743830828027e-08 0.0000000000000000e+00  1.3525332889966455e-08 -5.2397107248174156e-08 0.0000000000000000e+00  4.5344668297557308e-08 -1.6907404673079788e-07 0.0000000000000000e+00  3.3193482982043295e-08 -1.2620720801742291e-07 0.0000000000000000e+00  5.6093698168918654e-08 -2.0977148975951894e-07 0.0000000000000000e+00  4.3080478575097294e-08 -1.6355740714517950e-07 0.0000000000000000e+00  6.6318145628522066e-08 -2.5085914436910644e-07 0.0000000000000000e+00  4.8226149350476904e-08 -1.8311503810636893e-07 0.0000000000000000e+00  2.9775895381003947e-08 -1.1595718982336527e-07 0.0000000000000000e+00  4.5453942508746000e-08 -1.7229221808187165e-07 0.0000000000000000e+00  0.0000000000000000e+00 0.0000000000000000e+00 0.0000000000000000e+00  1.9551848312892766e-08 -7.4388407511359903e-08 0.0000000000000000e+00  1.2684270945788811e-08 -4.8318654468945464e-08 0.0000000000000000e+00  1.9571581566662418e-08 -7.9094405772891181e-08 0.0000000000000000e+00  1.6400933058325320e-08 -7.1737675319642827e-08 0.0000000000000000e+00  2.4287189879280555e-08 -9.7751735489254693e-08 0.0000000000000000e+00  3.2816475182514679e-08 -1.2867770673688952e-07 0.0000000000000000e+00  1.2476639646389909e-08 -5.4738348815532125e-08 0.0000000000000000e+00  2.6921590052010168e-08 -1.0263812347534940e-07 0.0000000000000000e+00  6.3543923011385752e-08 -2.3859750450251239e-07 0.0000000000000000e+00  7.6404618434073064e-08 -2.8649975522808727e-07 0.0000000000000000e+00  1.7028177075630340e-08 -6.4952180200676679e-08 0.0000000000000000e+00  6.9563776801567014e-09 -2.6544101975230353e-08 0.0000000000000000e+00  1.0090490044078377e-07 -3.7585695226004106e-07 0.0000000000000000e+00  1.2961921808805465e-07 -4.7872263708729005e-07 0.0000000000000000e+00  1.2460143170359421e-07 -4.6556053903586855e-07 0.0000000000000000e+00  9.5865544747645099e-09 -3.8978188309010960e-08 0.0000000000000000e+00  1.8734450533973135e-08 -7.2885439976333028e-08 0.0000000000000000e+00  1.4531665231511743e-08 -5.4946447707024835e-08 0.0000000000000000e+00  2.8043007382253069e-08 -1.0574492178627479e-07 0.0000000000000000e+00  9.7605165187698599e-09 -3.7928680038471878e-08 0.0000000000000000e+00  0.0000000000000000e+00 0.0000000000000000e+00 0.0000000000000000e+00  1.3885041835258228e-08 -5.7436910073574246e-08 0.0000000000000000e+00  8.7284173320646091e-08 -3.2757507283872407e-07 0.0000000000000000e+00  2.9093813956658078e-08 -1.0825672915707148e-07 0.0000000000000000e+00  2.7200410723688758e-08 -1.0000206787543497e-07 0.0000000000000000e+00  5.2613985944990808e-08 -1.9395636384474692e-07 0.0000000000000000e+00  7.2432478609949878e-08 -2.6777486408448083e-07 0.0000000000000000e+00  0.0000000000000000e+00 0.0000000000000000e+00 0.0000000000000000e+00  0.0000000000000000e+00 0.0000000000000000e+00 0.0000000000000000e+00  1.3048302132742862e-08 -6.5150162906311095e-08 0.0000000000000000e+00  1.6932558682294791e-08 -7.7292722193134471e-08 0.0000000000000000e+00  1.7802889836189726e-08 -7.8764637952402547e-08 0.0000000000000000e+00  1.8060881449419261e-08 -7.0947670538157620e-08 0.0000000000000000e+00  7.8847675683455015e-09 -3.1151322842462532e-08 0.0000000000000000e+00  0.0000000000000000e+00 0.0000000000000000e+00 0.0000000000000000e+00  0.0000000000000000e+00 0.0000000000000000e+00 0.0000000000000000e+00  6.2238359437420106e-08 -2.2708367251737897e-07 0.0000000000000000e+00  0.0000000000000000e+00 0.0000000000000000e+00 0.0000000000000000e+00  6.7217352117228075e-09 -2.5953391609236802e-08 0.0000000000000000e+00  1.0675658267183147e-08 -4.3530494921192606e-08 0.0000000000000000e+00  3.8685236454678698e-08 -1.4717599429222075e-07 0.0000000000000000e+00  6.2551581037702448e-08 -2.3628238374517367e-07 0.0000000000000000e+00  3.8019049709967674e-08 -1.4645532249463802e-07 0.0000000000000000e+00  0.0000000000000000e+00 0.0000000000000000e+00 0.0000000000000000e+00  6.8077921221069532e-09 -3.0379915374210448e-08 0.0000000000000000e+00  2.5406754772988654e-08 -1.0339850153123957e-07 0.0000000000000000e+00  2.2930738553150139e-08 -9.3454492973490449e-08 0.0000000000000000e+00  7.4595236042040518e-08 -2.7748018057567418e-07 0.0000000000000000e+00  0.0000000000000000e+00 0.0000000000000000e+00 0.0000000000000000e+00  3.0663538027786678e-08 -1.1147763191858834e-07 0.0000000000000000e+00  3.4970384417000128e-08 -1.3523315814593141e-07 0.0000000000000000e+00  2.6830406926829026e-08 -1.0604717224068763e-07 0.0000000000000000e+00  2.1632232621085727e-08 -9.0239904436542876e-08 0.0000000000000000e+00  2.0859023552004505e-09 -7.9605244333236525e-09 0.0000000000000000e+00  2.8282983552496117e-08 -1.0757854259699895e-07 0.0000000000000000e+00  3.3796818824931161e-08 -1.2994270686553014e-07 0.0000000000000000e+00  4.7920225890657173e-08 -1.8243563812993455e-07 0.0000000000000000e+00  3.8134970758490596e-08 -1.4551181252384233e-07 0.0000000000000000e+00  5.1409248960514551e-08 -1.9507109656377091e-07 0.0000000000000000e+00  2.3221900068562317e-08 -9.6514279853644787e-08 0.0000000000000000e+00  2.4644185501637811e-08 -9.5131234950099726e-08 0.0000000000000000e+00  6.6155896230366697e-08 -2.4985216198025125e-07 0.0000000000000000e+00  5.2978055053029319e-08 -2.0079850079369537e-07 0.0000000000000000e+00  1.3566123937337037e-08 -5.0447542133167339e-08 0.0000000000000000e+00  1.5558517999503816e-08 -6.5224682639508897e-08 0.0000000000000000e+00  2.0031460933221597e-08 -8.0190370486605298e-08 0.0000000000000000e+00  2.4774150279978101e-08 -9.6563221031546111e-08 0.0000000000000000e+00  4.8969036384944127e-08 -1.8604239344250556e-07 0.0000000000000000e+00  4.5344737731324887e-09 -1.7288081768785025e-08 0.0000000000000000e+00  2.9868011555816197e-08 -1.1831523676115047e-07 0.0000000000000000e+00  1.4778336956160384e-08 -7.0372431214121172e-08 0.0000000000000000e+00  1.7870356686046247e-08 -7.7066043325647779e-08 0.0000000000000000e+00  1.9705926945963250e-08 -8.5095673141290642e-08 0.0000000000000000e+00  8.2605987715759170e-08 -3.0799948849364456e-07 0.0000000000000000e+00  9.0192137672983398e-08 -3.3962662417921413e-07 0.0000000000000000e+00  3.0674782425206137e-08 -1.2163691484118765e-07 0.0000000000000000e+00  1.0027693016306001e-07 -3.6842305322089849e-07 0.0000000000000000e+00  9.6134107586009233e-08 -3.5598264033936617e-07 0.0000000000000000e+00  0.0000000000000000e+00 0.0000000000000000e+00 0.0000000000000000e+00  0.0000000000000000e+00 0.0000000000000000e+00 0.0000000000000000e+00  2.6266821365988211e-08 -1.0249657266066283e-07 0.0000000000000000e+00  7.7002808085777302e-08 -2.8239016600686996e-07 0.0000000000000000e+00  </DataArray> 
</PointData> 
</Piece>
</UnstructuredGrid>
</VTKFile>