<?xml version="1.0"?>
<VTKFile type="UnstructuredGrid"  version="0.1"  >
<UnstructuredGrid>
<Piece  NumberOfPoints="103" NumberOfCells="170">
<Points>
<DataArray  type="Float64"  NumberOfComponents="3"  format="ascii">0 0.3514285714286952 0  0.03215830272795324 0.3311110896359255 0  0.02400550655420258 0.3538155845945724 0  0.1521457199348437 0.2144902684393899 0  0.1547844879126531 0.221343792228163 0  0.1460074103989341 0.2155962236814484 0  0 0.3221428571430699 0  0.1022962111550141 0.273832470550381 0  0.1121786756446853 0.257597694764058 0  0.1185619469878228 0.2730177051871591 0  0.05939492550527375 0.3149957962361826 0  0.03411173555592004 0.3013214948275056 0  0.1503920612246686 0.252658552798053 0  0.1407371787724462 0.2442700623456801 0  0.1431093770171943 0.2599228455937608 0  0.09191660917863548 0.3399083220637153 0  0.1133943915886014 0.3302098901172357 0  0.1085927601152855 0.3576703429582752 0  0.1291780217515827 0.2400382025520897 0  0.1325512871714925 0.2548933203634119 0  0.06140001986584975 0.41 0  0.08484979611354741 0.3801877867628078 0  0.05922009696123734 0.3774661510110062 0  0.1314207338941352 0.2277905748945162 0  0.1208839583881551 0.2181173442085023 0  0.1226326835593179 0.232510509637589 0  0.09380266644077194 0.2576101652245613 0  0.1315669208937715 0.2153401624373302 0  0.0655461589766832 0.3354809920423228 0  0.132972307375135 0.2702075053542861 0  0.1310410255455362 0.2846992571580754 0  0.05202618668915951 0.3533574174069209 0  0.0341778808147269 0.3756898840960821 0  0.1452227811648972 0.2894657338151946 0  0.1613699074131162 0.2874965309748423 0  0.1497954449456231 0.3068853213507886 0  0.1440834152269613 0.2215292013094449 0  0.1427902997716637 0.232150825925387 0  0.1544083940701868 0.2357510323977007 0  0.1491192377089382 0.242360482241113 0  0.1502092543645781 0.2281484929999839 0  0 0.3807142857143437 0  0.1362495245357279 0.2216212078679356 0  0.1307646098417589 0.3010050716147269 0  0.1571318226843289 0.245420672996831 0  0.1664692005849321 0.2475709156417281 0  0.1604617194638936 0.2557893928243108 0  0.1550656232429279 0.2649227029563504 0  0.1583987151778488 0.2277368545647528 0  0.1629104300036858 0.2335315343742052 0  0.1123698019379044 0.2058991360802581 0  0.09921229729781815 0.216694589313852 0  0.1099554730833504 0.2189591019945387 0  0.04764878584873936 0.2783518915062873 0  0.02152627632804056 0.2799148982921386 0  0.1682222986671726 0.2386028198193036 0  0.1742197252833576 0.2428413052501257 0  0.1704873609912336 0.2583583661241701 0  0 0.29285714285744 0  0.01744870257335064 0.3130375866803607 0  0.03317213267821684 0.2576605437337542 0  0.08173043279897278 0.3240331352477369 0  0.1154525741111949 0.2885583797282378 0  0.1230762637185412 0.2499754423532209 0  0.1505393388476328 0.2073241380633295 0  0.1411840007379324 0.2116418969121702 0  0.09198816075892419 0.2415871005044956 0  0.07716692921624396 0.2463138536171241 0  0.1461228744239319 0.2700598172698123 0  0 0.2635714285718054 0  0.1752851331147261 0.2508158313127855 0  0.0844877739943079 0.2754278344382655 0  0.07558403699563009 0.2617898205222132 0  0.114265829400523 0.2274814703880861 0  0.0206009415950734 0.3930565358299628 0  0.07847443385504081 0.3566824448208936 0  0.07646641941334627 0.2901165423065792 0  0.09694893303991545 0.2918649843860019 0  0.08032811137534199 0.3068839858890652 0  0.09752865082683917 0.3073326190116618 0  0.1031728984437735 0.2318497950763309 0  0.05856578271688782 0.295628513006081 0  0.1125187550934686 0.3075252986550676 0  0.09922070399794995 0.322662239561371 0  0.1618784257508376 0.2400587086087321 0  0.05506284017382649 0.2425906156552861 0  0.05876177350501315 0.2607579702960333 0  0.1358250422386446 0.2356584720209315 0  0.1239298454268555 0.2616776157580057 0  0.04263766443679855 0.3932630345153014 0  0.1147948284867253 0.2412597685036574 0  0.08319468457824891 0.2132940804249223 0  0.07392371664175142 0.2310989703896346 0  0.09023810730875097 0.2272487027068034 0  0.1416315037575542 0.2787693322658609 0  0.1298722944302657 0.3189004895954476 0  0.1028747054530789 0.2468430767368829 0  0.1632849702488283 0.2726003915760372 0  0.1528547616279626 0.2778511520150422 0  0 0.41 0  0.03015443760436654 0.41 0  0.06676399188859611 0.2764140668439541 0  0.1647287152160364 0.2637534120846467 0  </DataArray>
</Points>
<Cells>
<DataArray  type="UInt32"  Name="connectivity"  format="ascii">0 1 2  3 4 5  0 6 1  7 8 9  10 1 11  12 13 14  15 16 17  18 19 13  20 21 22  23 24 25  7 8 26  27 23 24  10 1 28  29 9 30  31 32 2  33 34 35  4 36 5  31 1 2  37 38 39  19 13 14  4 36 40  41 32 2  31 1 28  37 36 42  43 33 30  44 45 46  12 14 47  48 49 38  50 51 52  53 11 54  55 56 45  57 45 46  58 11 54  37 38 40  58 11 59  29 19 14  12 44 46  53 60 54  15 61 28  6 1 59  7 62 9  18 19 63  64 65 5  37 23 42  66 26 67  37 13 39  29 68 14  41 0 2  31 32 22  69 60 54  36 65 5  43 33 35  57 45 70  7 26 71  72 26 67  73 24 25  72 26 71  41 32 74  12 46 47  15 28 75  48 38 40  62 9 30  76 77 78  64 3 5  43 62 30  79 77 78  36 65 42  37 36 40  68 14 47  56 45 70  73 80 52  7 62 77  53 11 81  79 82 83  49 38 84  85 60 86  10 11 81  76 77 71  4 48 40  55 45 84  37 23 87  27 23 42  29 19 88  16 82 83  20 22 89  18 90 25  18 90 63  12 44 39  37 13 87  7 77 71  53 60 86  91 92 93  43 62 82  51 80 52  29 68 94  72 67 86  66 92 93  21 17 75  15 16 83  43 35 95  85 67 86  27 65 42  73 90 80  16 82 95  15 17 75  73 90 25  12 13 39  91 51 93  66 92 67  18 23 87  58 69 54  43 82 95  44 38 84  44 45 84  1 11 59  6 58 59  18 13 87  8 90 63  8 90 96  62 77 82  76 81 78  85 92 67  44 38 39  97 34 98  8 26 96  10 81 78  97 98 47  18 23 25  68 98 47  29 9 88  31 28 75  31 22 75  99 100 74  99 41 74  79 77 82  79 61 78  19 63 88  79 61 83  20 100 89  51 80 93  29 30 94  8 9 88  76 81 101  21 22 75  49 55 84  57 46 102  10 61 78  90 80 96  33 34 98  66 26 96  68 98 94  15 61 83  10 61 28  33 30 94  8 63 88  53 81 101  50 24 52  32 89 74  66 80 93  100 89 74  66 80 96  33 98 94  32 22 89  73 24 52  76 71 101  72 86 101  46 47 102  97 47 102  72 71 101  53 86 101  </DataArray>
<DataArray  type="UInt32"  Name="offsets"  format="ascii">3 6 9 12 15 18 21 24 27 30 33 36 39 42 45 48 51 54 57 60 63 66 69 72 75 78 81 84 87 90 93 96 99 102 105 108 111 114 117 120 123 126 129 132 135 138 141 144 147 150 153 156 159 162 165 168 171 174 177 180 183 186 189 192 195 198 201 204 207 210 213 216 219 222 225 228 231 234 237 240 243 246 249 252 255 258 261 264 267 270 273 276 279 282 285 288 291 294 297 300 303 306 309 312 315 318 321 324 327 330 333 336 339 342 345 348 351 354 357 360 363 366 369 372 375 378 381 384 387 390 393 396 399 402 405 408 411 414 417 420 423 426 429 432 435 438 441 444 447 450 453 456 459 462 465 468 471 474 477 480 483 486 489 492 495 498 501 504 507 510 </DataArray>
<DataArray  type="UInt8"  Name="types"  format="ascii">5 5 5 5 5 5 5 5 5 5 5 5 5 5 5 5 5 5 5 5 5 5 5 5 5 5 5 5 5 5 5 5 5 5 5 5 5 5 5 5 5 5 5 5 5 5 5 5 5 5 5 5 5 5 5 5 5 5 5 5 5 5 5 5 5 5 5 5 5 5 5 5 5 5 5 5 5 5 5 5 5 5 5 5 5 5 5 5 5 5 5 5 5 5 5 5 5 5 5 5 5 5 5 5 5 5 5 5 5 5 5 5 5 5 5 5 5 5 5 5 5 5 5 5 5 5 5 5 5 5 5 5 5 5 5 5 5 5 5 5 5 5 5 5 5 5 5 5 5 5 5 5 5 5 5 5 5 5 5 5 5 5 5 5 5 5 5 5 5 5 </DataArray>
</Cells>
<PointData  Vectors="f_43-1"> 
<DataArray  type="Float64"  Name="f_43-1"  NumberOfComponents="3" format="ascii">0.0000000000000000e+00 0.0000000000000000e+00 0.0000000000000000e+00  1.9659933272195547e-08 -6.9336823965675397e-08 0.0000000000000000e+00  1.1805779690059080e-08 -4.1510025025821803e-08 0.0000000000000000e+00  0.0000000000000000e+00 0.0000000000000000e+00 0.0000000000000000e+00  0.0000000000000000e+00 0.0000000000000000e+00 0.0000000000000000e+00  8.7661791459517621e-09 -3.4245426234980085e-08 0.0000000000000000e+00  0.0000000000000000e+00 0.0000000000000000e+00 0.0000000000000000e+00  7.3399590688185792e-08 -2.5885417155865535e-07 0.0000000000000000e+00  6.6247870982554808e-08 -2.3542008208890853e-07 0.0000000000000000e+00  9.0454751555760785e-08 -3.1575303706625906e-07 0.0000000000000000e+00  4.1972242539495809e-08 -1.4792797478291248e-07 0.0000000000000000e+00  2.2284738063914522e-08 -7.9442077281287762e-08 0.0000000000000000e+00  7.4039012529092178e-08 -2.5458162824755472e-07 0.0000000000000000e+00  5.4340493921380514e-08 -1.9053325417388909e-07 0.0000000000000000e+00  9.1655682592058701e-08 -3.1601656000408504e-07 0.0000000000000000e+00  7.0733159405836656e-08 -2.4710450025463579e-07 0.0000000000000000e+00  1.0873422484972630e-07 -3.7860897489157985e-07 0.0000000000000000e+00  7.9140637647521312e-08 -2.7650405705615248e-07 0.0000000000000000e+00  4.8884115960269390e-08 -1.7557410181022045e-07 0.0000000000000000e+00  7.4419412567777022e-08 -2.6005131267269212e-07 0.0000000000000000e+00  0.0000000000000000e+00 0.0000000000000000e+00 0.0000000000000000e+00  3.2125482429294317e-08 -1.1242773712252728e-07 0.0000000000000000e+00  2.0861194759160819e-08 -7.3083795775571946e-08 0.0000000000000000e+00  3.2234819852877636e-08 -1.2021577616167776e-07 0.0000000000000000e+00  2.7210405539967146e-08 -1.0986520682178475e-07 0.0000000000000000e+00  4.0002165190491985e-08 -1.4853869284552390e-07 0.0000000000000000e+00  5.4003249503969358e-08 -1.9513487017739399e-07 0.0000000000000000e+00  2.0696863102510835e-08 -8.3836433485957035e-08 0.0000000000000000e+00  4.4262779231722131e-08 -1.5524774901101614e-07 0.0000000000000000e+00  1.0393747632981526e-07 -3.5969291947537566e-07 0.0000000000000000e+00  1.2498055718274816e-07 -4.3182141866569004e-07 0.0000000000000000e+00  2.8012135429288725e-08 -9.8274789375243008e-08 0.0000000000000000e+00  1.1449524494496649e-08 -4.0174263336135960e-08 0.0000000000000000e+00  1.6480537009480156e-07 -5.6578580583994414e-07 0.0000000000000000e+00  2.1127548392943181e-07 -7.1954151701810119e-07 0.0000000000000000e+00  2.0357501050996964e-07 -7.0089686385182788e-07 0.0000000000000000e+00  1.5791139163877562e-08 -5.9267086131530954e-08 0.0000000000000000e+00  3.0736747184432062e-08 -1.1031841961395353e-07 0.0000000000000000e+00  2.3763713746126175e-08 -8.2880720864923504e-08 0.0000000000000000e+00  4.5852048037790158e-08 -1.5946002276981994e-07 0.0000000000000000e+00  1.6008557506341498e-08 -5.7395812749989388e-08 0.0000000000000000e+00  0.0000000000000000e+00 0.0000000000000000e+00 0.0000000000000000e+00  2.2911633994372640e-08 -8.7490379577156004e-08 0.0000000000000000e+00  1.4281553799498627e-07 -4.9373637334316761e-07 0.0000000000000000e+00  4.7479790490395884e-08 -1.6295000881666733e-07 0.0000000000000000e+00  4.4300177499503852e-08 -1.5025730592033268e-07 0.0000000000000000e+00  8.5739381473423526e-08 -2.9154608455543505e-07 0.0000000000000000e+00  1.1811013963144320e-07 -4.0267500180300658e-07 0.0000000000000000e+00  0.0000000000000000e+00 0.0000000000000000e+00 0.0000000000000000e+00  0.0000000000000000e+00 0.0000000000000000e+00 0.0000000000000000e+00  2.1915174336468950e-08 -1.0086052310847208e-07 0.0000000000000000e+00  2.8223109036155772e-08 -1.1885738209480595e-07 0.0000000000000000e+00  2.9579196447899531e-08 -1.2077434512828494e-07 0.0000000000000000e+00  2.9780175880062758e-08 -1.0770761157379965e-07 0.0000000000000000e+00  1.3014268841661692e-08 -4.7333570188313279e-08 0.0000000000000000e+00  0.0000000000000000e+00 0.0000000000000000e+00 0.0000000000000000e+00  0.0000000000000000e+00 0.0000000000000000e+00 0.0000000000000000e+00  1.0122099374165008e-07 -3.4078847323836395e-07 0.0000000000000000e+00  0.0000000000000000e+00 0.0000000000000000e+00 0.0000000000000000e+00  1.1075078004697822e-08 -3.9340558849837327e-08 0.0000000000000000e+00  1.7662528215378571e-08 -6.6344376722031176e-08 0.0000000000000000e+00  6.3548135939094504e-08 -2.2248028899535615e-07 0.0000000000000000e+00  1.0248966612588215e-07 -3.5659820881030911e-07 0.0000000000000000e+00  6.2373867354172845e-08 -2.2151497672351387e-07 0.0000000000000000e+00  0.0000000000000000e+00 0.0000000000000000e+00 0.0000000000000000e+00  1.1306828156464581e-08 -4.6591406136154161e-08 0.0000000000000000e+00  4.1944900002387942e-08 -1.5739972347523701e-07 0.0000000000000000e+00  3.7885372519303245e-08 -1.4232675225870695e-07 0.0000000000000000e+00  1.2179299747011872e-07 -4.1767807566676006e-07 0.0000000000000000e+00  0.0000000000000000e+00 0.0000000000000000e+00 0.0000000000000000e+00  4.9834838242539775e-08 -1.6720931723543337e-07 0.0000000000000000e+00  5.7506303641691157e-08 -2.0481115844239171e-07 0.0000000000000000e+00  4.4218209291655880e-08 -1.6101488695670071e-07 0.0000000000000000e+00  3.5752904374243196e-08 -1.3762672776247225e-07 0.0000000000000000e+00  3.4340771672334508e-09 -1.2050050855288800e-08 0.0000000000000000e+00  4.6475487227801177e-08 -1.6261913178880254e-07 0.0000000000000000e+00  5.5571183049344444e-08 -1.9670519036937036e-07 0.0000000000000000e+00  7.8651851799450578e-08 -2.7572034087658026e-07 0.0000000000000000e+00  6.2657684670197703e-08 -2.2005724046486562e-07 0.0000000000000000e+00  8.4359544174953539e-08 -2.9468335452370849e-07 0.0000000000000000e+00  3.8387042672936163e-08 -1.4718061418045982e-07 0.0000000000000000e+00  4.0564075367126790e-08 -1.4412382046120961e-07 0.0000000000000000e+00  1.0842853609622273e-07 -3.7706762274535721e-07 0.0000000000000000e+00  8.6929124647603047e-08 -3.0326392830993130e-07 0.0000000000000000e+00  2.2135027022672105e-08 -7.5925832892183152e-08 0.0000000000000000e+00  2.5785886189812235e-08 -9.9640351749211905e-08 0.0000000000000000e+00  3.3068819142627618e-08 -1.2195291607447402e-07 0.0000000000000000e+00  4.0663848074478876e-08 -1.4620394841501086e-07 0.0000000000000000e+00  8.0231169022496761e-08 -2.8093351791353426e-07 0.0000000000000000e+00  7.4616799127697957e-09 -2.6159248717602517e-08 0.0000000000000000e+00  4.9143898207929576e-08 -1.7952536517409498e-07 0.0000000000000000e+00  2.4741593301295608e-08 -1.0861913318560451e-07 0.0000000000000000e+00  2.9669323552380767e-08 -1.1799359702184114e-07 0.0000000000000000e+00  3.2699681033372803e-08 -1.3026025226894656e-07 0.0000000000000000e+00  1.3495029695144653e-07 -4.6378038588509353e-07 0.0000000000000000e+00  1.4766815666084164e-07 -5.1206780184109019e-07 0.0000000000000000e+00  5.0505075347008913e-08 -1.8463577500837259e-07 0.0000000000000000e+00  1.6330304585792944e-07 -5.5343005936962755e-07 0.0000000000000000e+00  1.5681605481226741e-07 -5.3540558073042024e-07 0.0000000000000000e+00  0.0000000000000000e+00 0.0000000000000000e+00 0.0000000000000000e+00  0.0000000000000000e+00 0.0000000000000000e+00 0.0000000000000000e+00  4.3259094693769066e-08 -1.5544168635607798e-07 0.0000000000000000e+00  1.2535951727814201e-07 -4.2411102202637767e-07 0.0000000000000000e+00  </DataArray> 
</PointData> 
</Piece>
</UnstructuredGrid>
</VTKFile>