<?xml version="1.0"?>
<VTKFile type="UnstructuredGrid"  version="0.1"  >
<UnstructuredGrid>
<Piece  NumberOfPoints="103" NumberOfCells="170">
<Points>
<DataArray  type="Float64"  NumberOfComponents="3"  format="ascii">0 0.3514285714286952 0  0.03215830272795324 0.3311110896359255 0  0.02400550655420258 0.3538155845945724 0  0.1521457199348437 0.2144902684393899 0  0.1547844879126531 0.221343792228163 0  0.1460074103989341 0.2155962236814484 0  0 0.3221428571430699 0  0.1022962111550141 0.273832470550381 0  0.1121786756446853 0.257597694764058 0  0.1185619469878228 0.2730177051871591 0  0.05939492550527375 0.3149957962361826 0  0.03411173555592004 0.3013214948275056 0  0.1503920612246686 0.252658552798053 0  0.1407371787724462 0.2442700623456801 0  0.1431093770171943 0.2599228455937608 0  0.09191660917863548 0.3399083220637153 0  0.1133943915886014 0.3302098901172357 0  0.1085927601152855 0.3576703429582752 0  0.1291780217515827 0.2400382025520897 0  0.1325512871714925 0.2548933203634119 0  0.06140001986584975 0.41 0  0.08484979611354741 0.3801877867628078 0  0.05922009696123734 0.3774661510110062 0  0.1314207338941352 0.2277905748945162 0  0.1208839583881551 0.2181173442085023 0  0.1226326835593179 0.232510509637589 0  0.09380266644077194 0.2576101652245613 0  0.1315669208937715 0.2153401624373302 0  0.0655461589766832 0.3354809920423228 0  0.132972307375135 0.2702075053542861 0  0.1310410255455362 0.2846992571580754 0  0.05202618668915951 0.3533574174069209 0  0.0341778808147269 0.3756898840960821 0  0.1452227811648972 0.2894657338151946 0  0.1613699074131162 0.2874965309748423 0  0.1497954449456231 0.3068853213507886 0  0.1440834152269613 0.2215292013094449 0  0.1427902997716637 0.232150825925387 0  0.1544083940701868 0.2357510323977007 0  0.1491192377089382 0.242360482241113 0  0.1502092543645781 0.2281484929999839 0  0 0.3807142857143437 0  0.1362495245357279 0.2216212078679356 0  0.1307646098417589 0.3010050716147269 0  0.1571318226843289 0.245420672996831 0  0.1664692005849321 0.2475709156417281 0  0.1604617194638936 0.2557893928243108 0  0.1550656232429279 0.2649227029563504 0  0.1583987151778488 0.2277368545647528 0  0.1629104300036858 0.2335315343742052 0  0.1123698019379044 0.2058991360802581 0  0.09921229729781815 0.216694589313852 0  0.1099554730833504 0.2189591019945387 0  0.04764878584873936 0.2783518915062873 0  0.02152627632804056 0.2799148982921386 0  0.1682222986671726 0.2386028198193036 0  0.1742197252833576 0.2428413052501257 0  0.1704873609912336 0.2583583661241701 0  0 0.29285714285744 0  0.01744870257335064 0.3130375866803607 0  0.03317213267821684 0.2576605437337542 0  0.08173043279897278 0.3240331352477369 0  0.1154525741111949 0.2885583797282378 0  0.1230762637185412 0.2499754423532209 0  0.1505393388476328 0.2073241380633295 0  0.1411840007379324 0.2116418969121702 0  0.09198816075892419 0.2415871005044956 0  0.07716692921624396 0.2463138536171241 0  0.1461228744239319 0.2700598172698123 0  0 0.2635714285718054 0  0.1752851331147261 0.2508158313127855 0  0.0844877739943079 0.2754278344382655 0  0.07558403699563009 0.2617898205222132 0  0.114265829400523 0.2274814703880861 0  0.0206009415950734 0.3930565358299628 0  0.07847443385504081 0.3566824448208936 0  0.07646641941334627 0.2901165423065792 0  0.09694893303991545 0.2918649843860019 0  0.08032811137534199 0.3068839858890652 0  0.09752865082683917 0.3073326190116618 0  0.1031728984437735 0.2318497950763309 0  0.05856578271688782 0.295628513006081 0  0.1125187550934686 0.3075252986550676 0  0.09922070399794995 0.322662239561371 0  0.1618784257508376 0.2400587086087321 0  0.05506284017382649 0.2425906156552861 0  0.05876177350501315 0.2607579702960333 0  0.1358250422386446 0.2356584720209315 0  0.1239298454268555 0.2616776157580057 0  0.04263766443679855 0.3932630345153014 0  0.1147948284867253 0.2412597685036574 0  0.08319468457824891 0.2132940804249223 0  0.07392371664175142 0.2310989703896346 0  0.09023810730875097 0.2272487027068034 0  0.1416315037575542 0.2787693322658609 0  0.1298722944302657 0.3189004895954476 0  0.1028747054530789 0.2468430767368829 0  0.1632849702488283 0.2726003915760372 0  0.1528547616279626 0.2778511520150422 0  0 0.41 0  0.03015443760436654 0.41 0  0.06676399188859611 0.2764140668439541 0  0.1647287152160364 0.2637534120846467 0  </DataArray>
</Points>
<Cells>
<DataArray  type="UInt32"  Name="connectivity"  format="ascii">0 1 2  3 4 5  0 6 1  7 8 9  10 1 11  12 13 14  15 16 17  18 19 13  20 21 22  23 24 25  7 8 26  27 23 24  10 1 28  29 9 30  31 32 2  33 34 35  4 36 5  31 1 2  37 38 39  19 13 14  4 36 40  41 32 2  31 1 28  37 36 42  43 33 30  44 45 46  12 14 47  48 49 38  50 51 52  53 11 54  55 56 45  57 45 46  58 11 54  37 38 40  58 11 59  29 19 14  12 44 46  53 60 54  15 61 28  6 1 59  7 62 9  18 19 63  64 65 5  37 23 42  66 26 67  37 13 39  29 68 14  41 0 2  31 32 22  69 60 54  36 65 5  43 33 35  57 45 70  7 26 71  72 26 67  73 24 25  72 26 71  41 32 74  12 46 47  15 28 75  48 38 40  62 9 30  76 77 78  64 3 5  43 62 30  79 77 78  36 65 42  37 36 40  68 14 47  56 45 70  73 80 52  7 62 77  53 11 81  79 82 83  49 38 84  85 60 86  10 11 81  76 77 71  4 48 40  55 45 84  37 23 87  27 23 42  29 19 88  16 82 83  20 22 89  18 90 25  18 90 63  12 44 39  37 13 87  7 77 71  53 60 86  91 92 93  43 62 82  51 80 52  29 68 94  72 67 86  66 92 93  21 17 75  15 16 83  43 35 95  85 67 86  27 65 42  73 90 80  16 82 95  15 17 75  73 90 25  12 13 39  91 51 93  66 92 67  18 23 87  58 69 54  43 82 95  44 38 84  44 45 84  1 11 59  6 58 59  18 13 87  8 90 63  8 90 96  62 77 82  76 81 78  85 92 67  44 38 39  97 34 98  8 26 96  10 81 78  97 98 47  18 23 25  68 98 47  29 9 88  31 28 75  31 22 75  99 100 74  99 41 74  79 77 82  79 61 78  19 63 88  79 61 83  20 100 89  51 80 93  29 30 94  8 9 88  76 81 101  21 22 75  49 55 84  57 46 102  10 61 78  90 80 96  33 34 98  66 26 96  68 98 94  15 61 83  10 61 28  33 30 94  8 63 88  53 81 101  50 24 52  32 89 74  66 80 93  100 89 74  66 80 96  33 98 94  32 22 89  73 24 52  76 71 101  72 86 101  46 47 102  97 47 102  72 71 101  53 86 101  </DataArray>
<DataArray  type="UInt32"  Name="offsets"  format="ascii">3 6 9 12 15 18 21 24 27 30 33 36 39 42 45 48 51 54 57 60 63 66 69 72 75 78 81 84 87 90 93 96 99 102 105 108 111 114 117 120 123 126 129 132 135 138 141 144 147 150 153 156 159 162 165 168 171 174 177 180 183 186 189 192 195 198 201 204 207 210 213 216 219 222 225 228 231 234 237 240 243 246 249 252 255 258 261 264 267 270 273 276 279 282 285 288 291 294 297 300 303 306 309 312 315 318 321 324 327 330 333 336 339 342 345 348 351 354 357 360 363 366 369 372 375 378 381 384 387 390 393 396 399 402 405 408 411 414 417 420 423 426 429 432 435 438 441 444 447 450 453 456 459 462 465 468 471 474 477 480 483 486 489 492 495 498 501 504 507 510 </DataArray>
<DataArray  type="UInt8"  Name="types"  format="ascii">5 5 5 5 5 5 5 5 5 5 5 5 5 5 5 5 5 5 5 5 5 5 5 5 5 5 5 5 5 5 5 5 5 5 5 5 5 5 5 5 5 5 5 5 5 5 5 5 5 5 5 5 5 5 5 5 5 5 5 5 5 5 5 5 5 5 5 5 5 5 5 5 5 5 5 5 5 5 5 5 5 5 5 5 5 5 5 5 5 5 5 5 5 5 5 5 5 5 5 5 5 5 5 5 5 5 5 5 5 5 5 5 5 5 5 5 5 5 5 5 5 5 5 5 5 5 5 5 5 5 5 5 5 5 5 5 5 5 5 5 5 5 5 5 5 5 5 5 5 5 5 5 5 5 5 5 5 5 5 5 5 5 5 5 5 5 5 5 5 5 </DataArray>
</Cells>
<PointData  Vectors="f_43-1"> 
<DataArray  type="Float64"  Name="f_43-1"  NumberOfComponents="3" format="ascii">0.0000000000000000e+00 0.0000000000000000e+00 0.0000000000000000e+00  1.1051636118593376e-08 -4.3071102307333208e-08 0.0000000000000000e+00  6.6368792528089495e-09 -2.5793336260995553e-08 0.0000000000000000e+00  0.0000000000000000e+00 0.0000000000000000e+00 0.0000000000000000e+00  0.0000000000000000e+00 0.0000000000000000e+00 0.0000000000000000e+00  4.9031292386267711e-09 -2.1078618687338683e-08 0.0000000000000000e+00  0.0000000000000000e+00 0.0000000000000000e+00 0.0000000000000000e+00  4.1403539811674549e-08 -1.6107288143425354e-07 0.0000000000000000e+00  3.7364590974678158e-08 -1.4639067347818603e-07 0.0000000000000000e+00  5.1136019939329613e-08 -1.9684946865871798e-07 0.0000000000000000e+00  2.3618480805440312e-08 -9.1946607636977789e-08 0.0000000000000000e+00  1.2515918297729571e-08 -4.9282761770006059e-08 0.0000000000000000e+00  4.2028165129880353e-08 -1.5919766843585614e-07 0.0000000000000000e+00  3.0750382499024210e-08 -1.1878438174161207e-07 0.0000000000000000e+00  5.1984585947647526e-08 -1.9750239980155393e-07 0.0000000000000000e+00  3.9892035596193767e-08 -1.5392213943239075e-07 0.0000000000000000e+00  6.1424942052749212e-08 -2.3611819164992137e-07 0.0000000000000000e+00  4.4661126746228343e-08 -1.7234100033778585e-07 0.0000000000000000e+00  2.7569011343004404e-08 -1.0908458830667371e-07 0.0000000000000000e+00  4.2108396573174016e-08 -1.6216517936184182e-07 0.0000000000000000e+00  0.0000000000000000e+00 0.0000000000000000e+00 0.0000000000000000e+00  1.8102578225808834e-08 -7.0002150285607594e-08 0.0000000000000000e+00  1.1742081123021672e-08 -4.5464321960815878e-08 0.0000000000000000e+00  1.8108725693248582e-08 -7.4359073206958946e-08 0.0000000000000000e+00  1.5151684662800155e-08 -6.7356256690837054e-08 0.0000000000000000e+00  2.2472210289378935e-08 -9.1903370296506601e-08 0.0000000000000000e+00  3.0371806510340104e-08 -1.2102226876624687e-07 0.0000000000000000e+00  1.1526405409842713e-08 -5.1394341187293546e-08 0.0000000000000000e+00  2.4922907769410975e-08 -9.6574394443908701e-08 0.0000000000000000e+00  5.8878478303350411e-08 -2.2461769574796817e-07 0.0000000000000000e+00  7.0795069442681565e-08 -2.6972192475067506e-07 0.0000000000000000e+00  1.5762543737055765e-08 -6.1112148696830070e-08 0.0000000000000000e+00  6.4387784031848806e-09 -2.4973679713207296e-08 0.0000000000000000e+00  9.3522234541108427e-08 -3.5391655252679845e-07 0.0000000000000000e+00  1.2017830607289312e-07 -4.5088498290805325e-07 0.0000000000000000e+00  1.1547884997349426e-07 -4.3837349018137335e-07 0.0000000000000000e+00  8.8696140175337197e-09 -3.6641910263146425e-08 0.0000000000000000e+00  1.7347815714452000e-08 -6.8569341265484176e-08 0.0000000000000000e+00  1.3464733364988501e-08 -5.1721892554493010e-08 0.0000000000000000e+00  2.5984990547872409e-08 -9.9543924391642554e-08 0.0000000000000000e+00  9.0385909955345790e-09 -3.5683859980751824e-08 0.0000000000000000e+00  0.0000000000000000e+00 0.0000000000000000e+00 0.0000000000000000e+00  1.2842030493735708e-08 -5.3978073542434713e-08 0.0000000000000000e+00  8.0872693440234598e-08 -3.0839081688500058e-07 0.0000000000000000e+00  2.6968301887465007e-08 -1.0193857249489968e-07 0.0000000000000000e+00  2.5222487993493165e-08 -9.4192590870490185e-08 0.0000000000000000e+00  4.8783247927111915e-08 -1.8267683382788009e-07 0.0000000000000000e+00  6.7151543755421677e-08 -2.5218546232843156e-07 0.0000000000000000e+00  0.0000000000000000e+00 0.0000000000000000e+00 0.0000000000000000e+00  0.0000000000000000e+00 0.0000000000000000e+00 0.0000000000000000e+00  1.2022189590388951e-08 -6.1057459062868770e-08 0.0000000000000000e+00  1.5627716525901497e-08 -7.2522018710067579e-08 0.0000000000000000e+00  1.6442062504543211e-08 -7.3939012707469911e-08 0.0000000000000000e+00  1.6709907309886592e-08 -6.6715904631323006e-08 0.0000000000000000e+00  7.2935791610908299e-09 -2.9289103338368753e-08 0.0000000000000000e+00  0.0000000000000000e+00 0.0000000000000000e+00 0.0000000000000000e+00  0.0000000000000000e+00 0.0000000000000000e+00 0.0000000000000000e+00  5.7727290767123612e-08 -2.1393296138204882e-07 0.0000000000000000e+00  0.0000000000000000e+00 0.0000000000000000e+00 0.0000000000000000e+00  6.2201584765080173e-09 -2.4411779693965011e-08 0.0000000000000000e+00  9.8700501964497618e-09 -4.0907175538840337e-08 0.0000000000000000e+00  3.5818654454548896e-08 -1.3849377827967237e-07 0.0000000000000000e+00  5.7941965107299059e-08 -2.2239949014520928e-07 0.0000000000000000e+00  3.5206798792547176e-08 -1.3780009090380651e-07 0.0000000000000000e+00  0.0000000000000000e+00 0.0000000000000000e+00 0.0000000000000000e+00  6.2875541349878878e-09 -2.8517381687400508e-08 0.0000000000000000e+00  2.3497966722455430e-08 -9.7184641542957160e-08 0.0000000000000000e+00  2.1205251504039721e-08 -8.7832171222421985e-08 0.0000000000000000e+00  6.9140994886121336e-08 -2.6128500723620591e-07 0.0000000000000000e+00  0.0000000000000000e+00 0.0000000000000000e+00 0.0000000000000000e+00  2.8444449149810662e-08 -1.0503064063068097e-07 0.0000000000000000e+00  3.2370995155131901e-08 -1.2721577801777055e-07 0.0000000000000000e+00  2.4824820295701671e-08 -9.9718406492147898e-08 0.0000000000000000e+00  2.0001262530159463e-08 -8.4788874208114498e-08 0.0000000000000000e+00  1.9306143557597388e-09 -7.4893878960940694e-09 0.0000000000000000e+00  2.6186026943572050e-08 -1.0123266288055602e-07 0.0000000000000000e+00  3.1285957735598731e-08 -1.2224912011376405e-07 0.0000000000000000e+00  4.4375015308818359e-08 -1.7167842327916373e-07 0.0000000000000000e+00  3.5307338892611024e-08 -1.3691841400787513e-07 0.0000000000000000e+00  4.7608512752336910e-08 -1.8358236421592048e-07 0.0000000000000000e+00  2.1470798337645470e-08 -9.0686380731663563e-08 0.0000000000000000e+00  2.2809027689852853e-08 -8.9487505943504393e-08 0.0000000000000000e+00  6.1278097406555918e-08 -2.3517308393977940e-07 0.0000000000000000e+00  4.9062258167539169e-08 -1.8897946179644432e-07 0.0000000000000000e+00  1.2575427273436715e-08 -4.7504145933605528e-08 0.0000000000000000e+00  1.4378598205178485e-08 -6.1269278650222705e-08 0.0000000000000000e+00  1.8527979837599590e-08 -7.5384734938123953e-08 0.0000000000000000e+00  2.2938675578914501e-08 -9.0840340020183684e-08 0.0000000000000000e+00  4.5359270632581486e-08 -1.7509465521297398e-07 0.0000000000000000e+00  4.1972546764861449e-09 -1.6265855781062251e-08 0.0000000000000000e+00  2.7642436766760466e-08 -1.1126415723202187e-07 0.0000000000000000e+00  1.3626682909723627e-08 -6.5987037249116118e-08 0.0000000000000000e+00  1.6508283651765905e-08 -7.2364325537945278e-08 0.0000000000000000e+00  1.8205425033255592e-08 -7.9906276502892669e-08 0.0000000000000000e+00  7.6558530034574925e-08 -2.9000673262505107e-07 0.0000000000000000e+00  8.3558066897125074e-08 -3.1971910794055592e-07 0.0000000000000000e+00  2.8385897796299410e-08 -1.1438130202595009e-07 0.0000000000000000e+00  9.2987357399406947e-08 -3.4703322329632314e-07 0.0000000000000000e+00  8.9119875516280971e-08 -3.3524887449429648e-07 0.0000000000000000e+00  0.0000000000000000e+00 0.0000000000000000e+00 0.0000000000000000e+00  0.0000000000000000e+00 0.0000000000000000e+00 0.0000000000000000e+00  2.4307471812721540e-08 -9.6399035002781256e-08 0.0000000000000000e+00  7.1409060386994921e-08 -2.6600403822896297e-07 0.0000000000000000e+00  </DataArray> 
</PointData> 
</Piece>
</UnstructuredGrid>
</VTKFile>