<?xml version="1.0"?>
<VTKFile type="UnstructuredGrid"  version="0.1"  >
<UnstructuredGrid>
<Piece  NumberOfPoints="104" NumberOfCells="168">
<Points>
<DataArray  type="Float64"  NumberOfComponents="3"  format="ascii">0.1123698019379044 0.2058991360802581 0  0.1106531987626008 0.1894643335925837 0  0.09638298985168356 0.2000713960717276 0  0.0534241021414831 0.2075428856341382 0  0.07538638723190919 0.1915913195394167 0  0.06726459509928774 0.2147740778951952 0  0.05117116986370451 0.1453484941029572 0  0.028576868323113 0.1257840022252348 0  0.02526469030969892 0.1581631046774197 0  0.07781603907681035 0.1514291067465787 0  0.06748599119092742 0.1295390004813558 0  0.04799687037553593 0.1900185470502504 0  0.09145562669711395 0.175668370620234 0  0.09635163646555502 0.1596076048115481 0  0.07646146193815946 0.1687797331838 0  0 0.05857142857161107 0  0 0.02928571428580012 0  0.02797905238142366 0.04239836249189064 0  0.06224717571675014 0.16049953533406 0  0 0.1464285714289574 0  0.09921229729781815 0.216694589313852 0  0.09898678642452967 0.1862327908870533 0  0.05400790163887537 0.1101452894911868 0  0.03212895351398194 0.09444182905744057 0  0.08319468457824891 0.2132940804249223 0  0.05506284017382649 0.2425906156552861 0  0.03234799839792719 0.2322323714096635 0  0.03317213267821684 0.2576605437337542 0  0.1292063859387973 0.160179270973018 0  0.1151037363297016 0.1585854167638264 0  0.1231191457617618 0.1724983802372761 0  0.1355360062927427 0.1738833905690768 0  0.1050372607361503 0.1429640509822009 0  0.1230381620938855 0.1450531231009962 0  0.0935028978038551 0.1155179240798671 0  0.111152240021284 0.1189096594659376 0  0.1054072552277489 0.1021549990488465 0  0.1096093854383046 0.1735927505678576 0  0 0.2050000000005308 0  0 0.175714285714732 0  0.02618711892167316 0.1853857958188918 0  0.01613142829340684 0.1072217040510405 0  0.122936306709419 0.1942457603434553 0  0.06019518928764452 0.1756854700606436 0  0.02666772661991777 0.0679778810487357 0  0 0.1171428571431897 0  0.1014345676140794 0.1290819941168235 0  0.117949309539449 0.1314289940198134 0  0.03021129466766341 0.2085417214687756 0  0.1036135449877143 0.05738959277900078 0  0.09466282906331301 0.08157239522441412 0  0.07832843537012292 0.06126359650172827 0  0.1391384346554765 0.1858795044738252 0  0.145931504770643 0.1790663128181236 0  0.122631157988491 0.09257199523221718 0  0.1134537715612197 0.07678361544475715 0  0.05222303834057849 0.2265528286728498 0  0.1148334976584671 0.02974143409366008 0  0.09081855865494762 0.03967545099949583 0  0.08022298127737337 0.02066125809180845 0  0.02189315577988027 0.02003654345635235 0  0.1547844879126891 0.178656207771761 0  0.1521457199348551 0.1855097315605723 0  0.09153146034330391 0.147014376487579 0  0.1287170257632792 0.184020996598548 0  0.15 0.2 0  0.1505393388476355 0.1926758619366523 0  0.1422409429600901 0.1949058082424083 0  0.08753885022423818 0.1327572923195972 0  0.09377624077125973 0 0  0.1190100010379731 0.1821161889112382 0  0.1505393388476328 0.2073241380633295 0  0.1411840007379324 0.2116418969121702 0  0.142418795187722 0.2037346032343752 0  0 0.2635714285718054 0  0.01618611334675497 0.2427628432417809 0  0.05089208832759198 0.1278218136608264 0  0.07652608185644398 0.1136649778936783 0  0 0.08785714285737878 0  0.1222490905968041 0.0568943244623543 0  0.05279799154606677 0.07413248748556238 0  0.05175480232928564 0.05161223413186988 0  0.1253993623290572 0.2064220893288703 0  0.1461361374362119 0.1877340006482242 0  0.04532626869875341 0.1677660334507069 0  0.1334936092195415 0.1996994045566088 0  0.05608725465409541 0.09204870468608509 0  0.07008568006437076 0.038573163912329 0  0 0 0  0.03015443760436003 0 0  0.01505266539966814 0.2227442931166357 0  0.1340862878862802 0.2075381961934842 0  0.07522121061998752 0.08286780747833024 0  0.06140001986583606 0 0  0.04981329681653419 0.02287349761798159 0  0.1332359054626095 0.1910279922431038 0  0.1185608756269049 0.1083965233746596 0  0.07392371664175142 0.2310989703896346 0  0.1315669208937715 0.2153401624373302 0  0.1208839583881551 0.2181173442085023 0  0.08823391104783466 0.09873317213709612 0  0 0.2342857142861561 0  0.0736413556775514 0.09691323218918799 0  0.1261668873624441 0.1203748521618074 0  </DataArray>
</Points>
<Cells>
<DataArray  type="UInt32"  Name="connectivity"  format="ascii">0 1 2  3 4 5  6 7 8  6 9 10  3 4 11  12 13 14  15 16 17  6 9 18  19 7 8  0 2 20  2 4 21  9 13 14  22 7 23  12 4 21  24 4 5  25 26 27  28 29 30  28 31 30  24 2 4  32 33 29  34 35 36  37 1 21  12 37 13  38 39 40  28 33 29  7 23 41  0 1 42  12 37 21  43 4 11  15 17 44  19 45 7  34 35 46  32 13 29  32 33 47  38 40 48  49 50 51  52 53 31  54 36 55  25 26 56  39 40 8  57 58 59  16 17 60  12 4 14  61 62 53  24 2 20  9 13 63  49 50 55  64 52 31  50 36 55  65 66 67  9 10 68  69 57 59  37 1 70  32 47 46  71 72 73  74 27 75  37 13 29  37 29 30  6 7 76  34 68 77  78 23 44  3 48 56  39 19 8  49 57 79  80 23 44  80 44 81  22 7 76  0 42 82  49 51 58  62 53 83  40 84 11  78 15 44  1 2 21  43 4 14  40 8 84  65 67 73  26 48 56  85 67 73  22 23 86  10 68 77  43 84 11  85 42 82  66 67 83  6 8 84  17 44 81  87 51 58  6 10 76  65 71 73  80 51 81  80 23 86  88 16 60  35 47 46  88 89 60  38 48 90  85 73 91  49 57 58  9 68 63  80 51 92  89 93 94  50 51 92  85 42 95  64 31 30  64 52 95  78 23 41  52 67 95  35 36 96  24 97 5  98 82 99  25 97 56  87 51 81  45 7 41  52 53 83  64 42 70  34 68 46  52 67 83  72 73 91  64 42 95  87 94 59  89 94 60  93 94 59  87 94 81  97 5 56  17 94 81  26 27 75  22 10 77  45 78 41  85 82 91  3 48 11  0 82 99  32 68 63  32 68 46  80 86 92  98 82 91  93 69 59  85 67 95  32 13 63  34 77 100  74 101 75  22 10 76  98 72 91  54 36 96  101 38 90  50 100 92  17 94 60  22 102 77  40 48 11  1 42 70  62 66 83  102 100 92  43 84 18  26 75 90  102 86 92  35 96 103  34 36 100  43 14 18  102 77 100  37 30 70  50 36 100  22 102 86  49 55 79  9 14 18  101 75 90  64 30 70  6 84 18  35 47 103  87 58 59  3 5 56  26 48 90  </DataArray>
<DataArray  type="UInt32"  Name="offsets"  format="ascii">3 6 9 12 15 18 21 24 27 30 33 36 39 42 45 48 51 54 57 60 63 66 69 72 75 78 81 84 87 90 93 96 99 102 105 108 111 114 117 120 123 126 129 132 135 138 141 144 147 150 153 156 159 162 165 168 171 174 177 180 183 186 189 192 195 198 201 204 207 210 213 216 219 222 225 228 231 234 237 240 243 246 249 252 255 258 261 264 267 270 273 276 279 282 285 288 291 294 297 300 303 306 309 312 315 318 321 324 327 330 333 336 339 342 345 348 351 354 357 360 363 366 369 372 375 378 381 384 387 390 393 396 399 402 405 408 411 414 417 420 423 426 429 432 435 438 441 444 447 450 453 456 459 462 465 468 471 474 477 480 483 486 489 492 495 498 501 504 </DataArray>
<DataArray  type="UInt8"  Name="types"  format="ascii">5 5 5 5 5 5 5 5 5 5 5 5 5 5 5 5 5 5 5 5 5 5 5 5 5 5 5 5 5 5 5 5 5 5 5 5 5 5 5 5 5 5 5 5 5 5 5 5 5 5 5 5 5 5 5 5 5 5 5 5 5 5 5 5 5 5 5 5 5 5 5 5 5 5 5 5 5 5 5 5 5 5 5 5 5 5 5 5 5 5 5 5 5 5 5 5 5 5 5 5 5 5 5 5 5 5 5 5 5 5 5 5 5 5 5 5 5 5 5 5 5 5 5 5 5 5 5 5 5 5 5 5 5 5 5 5 5 5 5 5 5 5 5 5 5 5 5 5 5 5 5 5 5 5 5 5 5 5 5 5 5 5 5 5 5 5 5 5 </DataArray>
</Cells>
<PointData  Vectors="f_43-1"> 
<DataArray  type="Float64"  Name="f_43-1"  NumberOfComponents="3" format="ascii">3.9500876906699388e-08 -1.7933346454107310e-07 0.0000000000000000e+00  2.9499815772446598e-08 -1.7241648937712932e-07 0.0000000000000000e+00  3.7555907564151838e-08 -1.8465471875330784e-07 0.0000000000000000e+00  2.9506968904848429e-08 -1.3553598764023243e-07 0.0000000000000000e+00  3.0616520492066203e-08 -1.6604811334768277e-07 0.0000000000000000e+00  3.9418658459224445e-08 -1.6986020253615272e-07 0.0000000000000000e+00  1.4260131811666597e-08 -1.3245740122803949e-07 0.0000000000000000e+00  7.1420925580982836e-09 -7.6718842712591477e-08 0.0000000000000000e+00  8.3703989518149092e-09 -6.4116189457779804e-08 0.0000000000000000e+00  2.0337553693386997e-08 -1.9252448871873158e-07 0.0000000000000000e+00  1.6180371351493685e-08 -1.8699830815250815e-07 0.0000000000000000e+00  2.1515819801045025e-08 -1.1693397855637071e-07 0.0000000000000000e+00  2.6541613445979664e-08 -1.8601233452345774e-07 0.0000000000000000e+00  2.3143836716377853e-08 -2.1359430182623454e-07 0.0000000000000000e+00  2.3358490450078637e-08 -1.7336666221714053e-07 0.0000000000000000e+00  0.0000000000000000e+00 0.0000000000000000e+00 0.0000000000000000e+00  0.0000000000000000e+00 0.0000000000000000e+00 0.0000000000000000e+00  2.8736343439471868e-09 -4.5376538867430786e-08 0.0000000000000000e+00  1.8978727563452593e-08 -1.5128375819127340e-07 0.0000000000000000e+00  0.0000000000000000e+00 0.0000000000000000e+00 0.0000000000000000e+00  5.0929796428938697e-08 -2.1003244721960443e-07 0.0000000000000000e+00  3.0108208983812166e-08 -1.8153864652580095e-07 0.0000000000000000e+00  1.1880837855760550e-08 -1.5302635068051435e-07 0.0000000000000000e+00  6.3758363645569687e-09 -8.5754341847636704e-08 0.0000000000000000e+00  4.4700487440893894e-08 -1.9272135970545290e-07 0.0000000000000000e+00  4.6673369716135452e-08 -1.7510187497750106e-07 0.0000000000000000e+00  2.4598338780554594e-08 -9.7453212314647826e-08 0.0000000000000000e+00  3.2002663260890079e-08 -1.1635437742618800e-07 0.0000000000000000e+00  1.9263818332587759e-08 -2.2207132638795678e-07 0.0000000000000000e+00  2.2074505409659050e-08 -2.3291684462530580e-07 0.0000000000000000e+00  2.0732955463094032e-08 -1.7986338519923580e-07 0.0000000000000000e+00  1.5109611727007005e-08 -1.4064802176506030e-07 0.0000000000000000e+00  2.2321565645839256e-08 -2.7141670119644634e-07 0.0000000000000000e+00  2.2475209088002437e-08 -3.0203466950884250e-07 0.0000000000000000e+00  2.0502193015740545e-08 -2.9612275730353122e-07 0.0000000000000000e+00  2.4200921251517402e-08 -3.7221527897959070e-07 0.0000000000000000e+00  2.3193209054020901e-08 -3.7639470841809417e-07 0.0000000000000000e+00  2.4554040951185100e-08 -1.9203387693243786e-07 0.0000000000000000e+00  0.0000000000000000e+00 0.0000000000000000e+00 0.0000000000000000e+00  0.0000000000000000e+00 0.0000000000000000e+00 0.0000000000000000e+00  1.1640533111267859e-08 -6.5827259722456712e-08 0.0000000000000000e+00  3.5316646749223319e-09 -4.3157653380887893e-08 0.0000000000000000e+00  2.6607654999165138e-08 -1.4542634699986703e-07 0.0000000000000000e+00  2.1716603568780878e-08 -1.4150326899191622e-07 0.0000000000000000e+00  4.1070163908378335e-09 -6.1099474026260307e-08 0.0000000000000000e+00  0.0000000000000000e+00 0.0000000000000000e+00 0.0000000000000000e+00  2.2047304489453482e-08 -3.0044896012918757e-07 0.0000000000000000e+00  2.4186297573317563e-08 -3.5551337560012099e-07 0.0000000000000000e+00  1.7580294894711082e-08 -8.0501600816671878e-08 0.0000000000000000e+00  1.7709306957102111e-08 -3.1663561547395330e-07 0.0000000000000000e+00  1.8930780197160159e-08 -3.1638700573219177e-07 0.0000000000000000e+00  1.2378649289952356e-08 -2.0723895150962606e-07 0.0000000000000000e+00  1.2327281460306819e-08 -8.6636350729462387e-08 0.0000000000000000e+00  7.3706100384270816e-09 -6.6664332636239409e-08 0.0000000000000000e+00  2.8929605836144688e-08 -5.1182321882774205e-07 0.0000000000000000e+00  2.4294900012104205e-08 -4.3224871140445046e-07 0.0000000000000000e+00  3.6786580230162836e-08 -1.4840034727192145e-07 0.0000000000000000e+00  1.2344115211063089e-08 -2.3052837019332495e-07 0.0000000000000000e+00  1.0746261607717345e-08 -1.9049553449460850e-07 0.0000000000000000e+00  4.8984607090228024e-09 -8.6152855183397583e-08 0.0000000000000000e+00  1.0944893702941445e-09 -1.7639078629923108e-08 0.0000000000000000e+00  0.0000000000000000e+00 0.0000000000000000e+00 0.0000000000000000e+00  0.0000000000000000e+00 0.0000000000000000e+00 0.0000000000000000e+00  2.1478118551369198e-08 -2.2978379902143049e-07 0.0000000000000000e+00  1.9595951739298118e-08 -1.3609028734109946e-07 0.0000000000000000e+00  0.0000000000000000e+00 0.0000000000000000e+00 0.0000000000000000e+00  0.0000000000000000e+00 0.0000000000000000e+00 0.0000000000000000e+00  1.0183958464900332e-08 -5.6773187615772635e-08 0.0000000000000000e+00  2.0011041899545208e-08 -2.4523688386018754e-07 0.0000000000000000e+00  0.0000000000000000e+00 0.0000000000000000e+00 0.0000000000000000e+00  2.3939592308674466e-08 -1.6557054777149597e-07 0.0000000000000000e+00  0.0000000000000000e+00 0.0000000000000000e+00 0.0000000000000000e+00  2.0339973373857400e-08 -8.2026175169390994e-08 0.0000000000000000e+00  1.2745715844442984e-08 -5.8085923457346837e-08 0.0000000000000000e+00  0.0000000000000000e+00 0.0000000000000000e+00 0.0000000000000000e+00  1.3655351926238816e-08 -5.2101030798164831e-08 0.0000000000000000e+00  1.2510483419584926e-08 -1.3890308906676895e-07 0.0000000000000000e+00  1.6876482601898025e-08 -2.2948408354209590e-07 0.0000000000000000e+00  0.0000000000000000e+00 0.0000000000000000e+00 0.0000000000000000e+00  2.3705093705124405e-08 -4.4078322571300153e-07 0.0000000000000000e+00  8.9513444704366104e-09 -1.3657413212649534e-07 0.0000000000000000e+00  6.5934934452328035e-09 -1.0614936536785615e-07 0.0000000000000000e+00  3.3205629878916820e-08 -1.4783980476491830e-07 0.0000000000000000e+00  5.7744815727140568e-09 -4.0275189118798984e-08 0.0000000000000000e+00  1.5842982721831130e-08 -1.1127735554749051e-07 0.0000000000000000e+00  2.1336911652015621e-08 -1.0571836951402641e-07 0.0000000000000000e+00  1.1031476735256886e-08 -1.5828627623062411e-07 0.0000000000000000e+00  7.3353758887560966e-09 -1.2472373311993109e-07 0.0000000000000000e+00  0.0000000000000000e+00 0.0000000000000000e+00 0.0000000000000000e+00  0.0000000000000000e+00 0.0000000000000000e+00 0.0000000000000000e+00  1.0390257340947932e-08 -4.3419497124761511e-08 0.0000000000000000e+00  2.6142828880431615e-08 -1.1317150720142101e-07 0.0000000000000000e+00  1.4298709858657647e-08 -2.2464744355054776e-07 0.0000000000000000e+00  0.0000000000000000e+00 0.0000000000000000e+00 0.0000000000000000e+00  2.9858763019941468e-09 -4.9655787278406885e-08 0.0000000000000000e+00  1.8071330350884291e-08 -1.0826279278184949e-07 0.0000000000000000e+00  2.6871893054055687e-08 -4.4822339296706508e-07 0.0000000000000000e+00  5.3639579916671308e-08 -2.0773855636034418e-07 0.0000000000000000e+00  3.7249655809291282e-08 -1.4742625057174625e-07 0.0000000000000000e+00  4.9011062006892189e-08 -1.9323615203589508e-07 0.0000000000000000e+00  1.8618128102805305e-08 -2.8733127076602798e-07 0.0000000000000000e+00  0.0000000000000000e+00 0.0000000000000000e+00 0.0000000000000000e+00  1.5132741136191222e-08 -2.2375456632994826e-07 0.0000000000000000e+00  2.7466102660062658e-08 -4.5048305979289486e-07 0.0000000000000000e+00  </DataArray> 
</PointData> 
</Piece>
</UnstructuredGrid>
</VTKFile>