<?xml version="1.0"?>
<VTKFile type="UnstructuredGrid"  version="0.1"  >
<UnstructuredGrid>
<Piece  NumberOfPoints="104" NumberOfCells="168">
<Points>
<DataArray  type="Float64"  NumberOfComponents="3"  format="ascii">0.1123698019379044 0.2058991360802581 0  0.1106531987626008 0.1894643335925837 0  0.09638298985168356 0.2000713960717276 0  0.0534241021414831 0.2075428856341382 0  0.07538638723190919 0.1915913195394167 0  0.06726459509928774 0.2147740778951952 0  0.05117116986370451 0.1453484941029572 0  0.028576868323113 0.1257840022252348 0  0.02526469030969892 0.1581631046774197 0  0.07781603907681035 0.1514291067465787 0  0.06748599119092742 0.1295390004813558 0  0.04799687037553593 0.1900185470502504 0  0.09145562669711395 0.175668370620234 0  0.09635163646555502 0.1596076048115481 0  0.07646146193815946 0.1687797331838 0  0 0.05857142857161107 0  0 0.02928571428580012 0  0.02797905238142366 0.04239836249189064 0  0.06224717571675014 0.16049953533406 0  0 0.1464285714289574 0  0.09921229729781815 0.216694589313852 0  0.09898678642452967 0.1862327908870533 0  0.05400790163887537 0.1101452894911868 0  0.03212895351398194 0.09444182905744057 0  0.08319468457824891 0.2132940804249223 0  0.05506284017382649 0.2425906156552861 0  0.03234799839792719 0.2322323714096635 0  0.03317213267821684 0.2576605437337542 0  0.1292063859387973 0.160179270973018 0  0.1151037363297016 0.1585854167638264 0  0.1231191457617618 0.1724983802372761 0  0.1355360062927427 0.1738833905690768 0  0.1050372607361503 0.1429640509822009 0  0.1230381620938855 0.1450531231009962 0  0.0935028978038551 0.1155179240798671 0  0.111152240021284 0.1189096594659376 0  0.1054072552277489 0.1021549990488465 0  0.1096093854383046 0.1735927505678576 0  0 0.2050000000005308 0  0 0.175714285714732 0  0.02618711892167316 0.1853857958188918 0  0.01613142829340684 0.1072217040510405 0  0.122936306709419 0.1942457603434553 0  0.06019518928764452 0.1756854700606436 0  0.02666772661991777 0.0679778810487357 0  0 0.1171428571431897 0  0.1014345676140794 0.1290819941168235 0  0.117949309539449 0.1314289940198134 0  0.03021129466766341 0.2085417214687756 0  0.1036135449877143 0.05738959277900078 0  0.09466282906331301 0.08157239522441412 0  0.07832843537012292 0.06126359650172827 0  0.1391384346554765 0.1858795044738252 0  0.145931504770643 0.1790663128181236 0  0.122631157988491 0.09257199523221718 0  0.1134537715612197 0.07678361544475715 0  0.05222303834057849 0.2265528286728498 0  0.1148334976584671 0.02974143409366008 0  0.09081855865494762 0.03967545099949583 0  0.08022298127737337 0.02066125809180845 0  0.02189315577988027 0.02003654345635235 0  0.1547844879126891 0.178656207771761 0  0.1521457199348551 0.1855097315605723 0  0.09153146034330391 0.147014376487579 0  0.1287170257632792 0.184020996598548 0  0.15 0.2 0  0.1505393388476355 0.1926758619366523 0  0.1422409429600901 0.1949058082424083 0  0.08753885022423818 0.1327572923195972 0  0.09377624077125973 0 0  0.1190100010379731 0.1821161889112382 0  0.1505393388476328 0.2073241380633295 0  0.1411840007379324 0.2116418969121702 0  0.142418795187722 0.2037346032343752 0  0 0.2635714285718054 0  0.01618611334675497 0.2427628432417809 0  0.05089208832759198 0.1278218136608264 0  0.07652608185644398 0.1136649778936783 0  0 0.08785714285737878 0  0.1222490905968041 0.0568943244623543 0  0.05279799154606677 0.07413248748556238 0  0.05175480232928564 0.05161223413186988 0  0.1253993623290572 0.2064220893288703 0  0.1461361374362119 0.1877340006482242 0  0.04532626869875341 0.1677660334507069 0  0.1334936092195415 0.1996994045566088 0  0.05608725465409541 0.09204870468608509 0  0.07008568006437076 0.038573163912329 0  0 0 0  0.03015443760436003 0 0  0.01505266539966814 0.2227442931166357 0  0.1340862878862802 0.2075381961934842 0  0.07522121061998752 0.08286780747833024 0  0.06140001986583606 0 0  0.04981329681653419 0.02287349761798159 0  0.1332359054626095 0.1910279922431038 0  0.1185608756269049 0.1083965233746596 0  0.07392371664175142 0.2310989703896346 0  0.1315669208937715 0.2153401624373302 0  0.1208839583881551 0.2181173442085023 0  0.08823391104783466 0.09873317213709612 0  0 0.2342857142861561 0  0.0736413556775514 0.09691323218918799 0  0.1261668873624441 0.1203748521618074 0  </DataArray>
</Points>
<Cells>
<DataArray  type="UInt32"  Name="connectivity"  format="ascii">0 1 2  3 4 5  6 7 8  6 9 10  3 4 11  12 13 14  15 16 17  6 9 18  19 7 8  0 2 20  2 4 21  9 13 14  22 7 23  12 4 21  24 4 5  25 26 27  28 29 30  28 31 30  24 2 4  32 33 29  34 35 36  37 1 21  12 37 13  38 39 40  28 33 29  7 23 41  0 1 42  12 37 21  43 4 11  15 17 44  19 45 7  34 35 46  32 13 29  32 33 47  38 40 48  49 50 51  52 53 31  54 36 55  25 26 56  39 40 8  57 58 59  16 17 60  12 4 14  61 62 53  24 2 20  9 13 63  49 50 55  64 52 31  50 36 55  65 66 67  9 10 68  69 57 59  37 1 70  32 47 46  71 72 73  74 27 75  37 13 29  37 29 30  6 7 76  34 68 77  78 23 44  3 48 56  39 19 8  49 57 79  80 23 44  80 44 81  22 7 76  0 42 82  49 51 58  62 53 83  40 84 11  78 15 44  1 2 21  43 4 14  40 8 84  65 67 73  26 48 56  85 67 73  22 23 86  10 68 77  43 84 11  85 42 82  66 67 83  6 8 84  17 44 81  87 51 58  6 10 76  65 71 73  80 51 81  80 23 86  88 16 60  35 47 46  88 89 60  38 48 90  85 73 91  49 57 58  9 68 63  80 51 92  89 93 94  50 51 92  85 42 95  64 31 30  64 52 95  78 23 41  52 67 95  35 36 96  24 97 5  98 82 99  25 97 56  87 51 81  45 7 41  52 53 83  64 42 70  34 68 46  52 67 83  72 73 91  64 42 95  87 94 59  89 94 60  93 94 59  87 94 81  97 5 56  17 94 81  26 27 75  22 10 77  45 78 41  85 82 91  3 48 11  0 82 99  32 68 63  32 68 46  80 86 92  98 82 91  93 69 59  85 67 95  32 13 63  34 77 100  74 101 75  22 10 76  98 72 91  54 36 96  101 38 90  50 100 92  17 94 60  22 102 77  40 48 11  1 42 70  62 66 83  102 100 92  43 84 18  26 75 90  102 86 92  35 96 103  34 36 100  43 14 18  102 77 100  37 30 70  50 36 100  22 102 86  49 55 79  9 14 18  101 75 90  64 30 70  6 84 18  35 47 103  87 58 59  3 5 56  26 48 90  </DataArray>
<DataArray  type="UInt32"  Name="offsets"  format="ascii">3 6 9 12 15 18 21 24 27 30 33 36 39 42 45 48 51 54 57 60 63 66 69 72 75 78 81 84 87 90 93 96 99 102 105 108 111 114 117 120 123 126 129 132 135 138 141 144 147 150 153 156 159 162 165 168 171 174 177 180 183 186 189 192 195 198 201 204 207 210 213 216 219 222 225 228 231 234 237 240 243 246 249 252 255 258 261 264 267 270 273 276 279 282 285 288 291 294 297 300 303 306 309 312 315 318 321 324 327 330 333 336 339 342 345 348 351 354 357 360 363 366 369 372 375 378 381 384 387 390 393 396 399 402 405 408 411 414 417 420 423 426 429 432 435 438 441 444 447 450 453 456 459 462 465 468 471 474 477 480 483 486 489 492 495 498 501 504 </DataArray>
<DataArray  type="UInt8"  Name="types"  format="ascii">5 5 5 5 5 5 5 5 5 5 5 5 5 5 5 5 5 5 5 5 5 5 5 5 5 5 5 5 5 5 5 5 5 5 5 5 5 5 5 5 5 5 5 5 5 5 5 5 5 5 5 5 5 5 5 5 5 5 5 5 5 5 5 5 5 5 5 5 5 5 5 5 5 5 5 5 5 5 5 5 5 5 5 5 5 5 5 5 5 5 5 5 5 5 5 5 5 5 5 5 5 5 5 5 5 5 5 5 5 5 5 5 5 5 5 5 5 5 5 5 5 5 5 5 5 5 5 5 5 5 5 5 5 5 5 5 5 5 5 5 5 5 5 5 5 5 5 5 5 5 5 5 5 5 5 5 5 5 5 5 5 5 5 5 5 5 5 5 </DataArray>
</Cells>
<PointData  Vectors="f_43-1"> 
<DataArray  type="Float64"  Name="f_43-1"  NumberOfComponents="3" format="ascii">-8.1691247862205328e-08 7.3473803395470210e-07 0.0000000000000000e+00  -4.2593916708523324e-08 7.4123061859904647e-07 0.0000000000000000e+00  -7.0840970617382743e-08 7.6843095933180641e-07 0.0000000000000000e+00  -6.0086716726000386e-08 5.5471267505240983e-07 0.0000000000000000e+00  -5.0342902932375260e-08 7.0302196611471562e-07 0.0000000000000000e+00  -8.5647879403050012e-08 6.8568672799612841e-07 0.0000000000000000e+00  2.3767674378422659e-09 6.0155848932856743e-07 0.0000000000000000e+00  5.9558699853057754e-09 3.5250845051870351e-07 0.0000000000000000e+00  -4.9798378509773290e-09 2.8497234163140913e-07 0.0000000000000000e+00  5.2588494643351071e-09 8.7756147573147847e-07 0.0000000000000000e+00  1.9779944668910125e-08 8.6588736182963133e-07 0.0000000000000000e+00  -3.5246106258663054e-08 4.9460157972764736e-07 0.0000000000000000e+00  -2.3701023173801303e-08 8.2042060572782863e-07 0.0000000000000000e+00  3.6372362089533932e-09 9.7294411745046470e-07 0.0000000000000000e+00  -1.6363590713121652e-08 7.6947730484243339e-07 0.0000000000000000e+00  0.0000000000000000e+00 0.0000000000000000e+00 0.0000000000000000e+00  0.0000000000000000e+00 0.0000000000000000e+00 0.0000000000000000e+00  8.9165916102948453e-09 2.1329099248968745e-07 0.0000000000000000e+00  -8.4541650430863827e-09 6.7658326011341385e-07 0.0000000000000000e+00  0.0000000000000000e+00 0.0000000000000000e+00 0.0000000000000000e+00  -1.1540013205168753e-07 8.4072800251766841e-07 0.0000000000000000e+00  -4.0839381959446175e-08 7.8371008496779015e-07 0.0000000000000000e+00  2.1612934804501271e-08 7.1299973933436985e-07 0.0000000000000000e+00  1.3190215248729753e-08 4.0013224805142551e-07 0.0000000000000000e+00  -9.7166699735352453e-08 7.7881036017393129e-07 0.0000000000000000e+00  -1.1374431602677022e-07 6.8170098922787744e-07 0.0000000000000000e+00  -5.7422649422453555e-08 3.8470239670625269e-07 0.0000000000000000e+00  -7.9676571760345688e-08 4.4844047570343676e-07 0.0000000000000000e+00  2.4680839641428609e-08 1.0362739459308072e-06 0.0000000000000000e+00  1.7601324244251639e-08 1.0766018297338223e-06 0.0000000000000000e+00  -1.8403451503774287e-09 8.1644113056217539e-07 0.0000000000000000e+00  3.3714264909071368e-09 6.4405554932005099e-07 0.0000000000000000e+00  3.4367703174376762e-08 1.2668345976759462e-06 0.0000000000000000e+00  4.8866027144555676e-08 1.4237894486499329e-06 0.0000000000000000e+00  5.2593798858944397e-08 1.3940911995287756e-06 0.0000000000000000e+00  7.3252027258159183e-08 1.7628615678719005e-06 0.0000000000000000e+00  7.8265650652661433e-08 1.7834812302415789e-06 0.0000000000000000e+00  -1.2341536473741297e-08 8.6022613668233754e-07 0.0000000000000000e+00  0.0000000000000000e+00 0.0000000000000000e+00 0.0000000000000000e+00  0.0000000000000000e+00 0.0000000000000000e+00 0.0000000000000000e+00  -1.7856773185467528e-08 2.8017724805821026e-07 0.0000000000000000e+00  5.3313416953879846e-09 2.0011221139381713e-07 0.0000000000000000e+00  -4.3235012005964555e-08 6.1858979364781358e-07 0.0000000000000000e+00  -2.4512200824558231e-08 6.1654854560877091e-07 0.0000000000000000e+00  1.1106251219433238e-08 2.8650694377810899e-07 0.0000000000000000e+00  0.0000000000000000e+00 0.0000000000000000e+00 0.0000000000000000e+00  4.8755830708809580e-08 1.4118736503000179e-06 0.0000000000000000e+00  6.6344609985203940e-08 1.6828334921403163e-06 0.0000000000000000e+00  -3.5891466672972881e-08 3.2899001698225698e-07 0.0000000000000000e+00  7.0856442033265060e-08 1.4989096356464198e-06 0.0000000000000000e+00  6.7067550705278580e-08 1.4968215883402184e-06 0.0000000000000000e+00  4.3625842988349832e-08 9.7830483395691988e-07 0.0000000000000000e+00  -1.0762475577021550e-08 3.8375332893318767e-07 0.0000000000000000e+00  7.4817259160616872e-10 3.0460513958691169e-07 0.0000000000000000e+00  1.1653386437922618e-07 2.4361528911290226e-06 0.0000000000000000e+00  9.7460815745306572e-08 2.0513301154767388e-06 0.0000000000000000e+00  -8.4680389931131139e-08 5.8901473862443659e-07 0.0000000000000000e+00  5.2576314050072830e-08 1.0895621787794875e-06 0.0000000000000000e+00  4.2085198233756205e-08 9.0018222277488900e-07 0.0000000000000000e+00  1.8861286582606067e-08 4.0668914240507573e-07 0.0000000000000000e+00  3.5488852756032519e-09 8.2958672604286007e-08 0.0000000000000000e+00  0.0000000000000000e+00 0.0000000000000000e+00 0.0000000000000000e+00  0.0000000000000000e+00 0.0000000000000000e+00 0.0000000000000000e+00  1.8098151099670446e-08 1.0601920778549548e-06 0.0000000000000000e+00  -1.7933461460746322e-08 6.0137971774478515e-07 0.0000000000000000e+00  0.0000000000000000e+00 0.0000000000000000e+00 0.0000000000000000e+00  0.0000000000000000e+00 0.0000000000000000e+00 0.0000000000000000e+00  -1.6011543444572384e-08 2.4260596963207670e-07 0.0000000000000000e+00  3.1230069456840313e-08 1.1425440809555903e-06 0.0000000000000000e+00  0.0000000000000000e+00 0.0000000000000000e+00 0.0000000000000000e+00  -2.2288764510290846e-08 7.3064874503721126e-07 0.0000000000000000e+00  0.0000000000000000e+00 0.0000000000000000e+00 0.0000000000000000e+00  -4.7112554922861358e-08 3.2752273854270723e-07 0.0000000000000000e+00  -2.6288043775974894e-08 2.3861251266617675e-07 0.0000000000000000e+00  0.0000000000000000e+00 0.0000000000000000e+00 0.0000000000000000e+00  -3.2813687716912316e-08 2.0351839099572021e-07 0.0000000000000000e+00  1.2581211140426624e-08 6.4051917148004695e-07 0.0000000000000000e+00  3.6465458194519703e-08 1.0746650306600645e-06 0.0000000000000000e+00  0.0000000000000000e+00 0.0000000000000000e+00 0.0000000000000000e+00  1.0154284740120744e-07 2.0891019299067875e-06 0.0000000000000000e+00  2.5762144494381237e-08 6.4179318168581788e-07 0.0000000000000000e+00  2.1356884483504674e-08 4.9969647100733389e-07 0.0000000000000000e+00  -7.0121565268803664e-08 6.0364823204509230e-07 0.0000000000000000e+00  -5.1844298656699052e-09 1.7826651130445097e-07 0.0000000000000000e+00  -1.4118599400742979e-08 4.8956076961327582e-07 0.0000000000000000e+00  -3.9911073636381206e-08 4.4173136017863796e-07 0.0000000000000000e+00  2.7357720453980125e-08 7.4198550389145028e-07 0.0000000000000000e+00  2.6551384016605033e-08 5.8839164233636347e-07 0.0000000000000000e+00  0.0000000000000000e+00 0.0000000000000000e+00 0.0000000000000000e+00  0.0000000000000000e+00 0.0000000000000000e+00 0.0000000000000000e+00  -2.3174685428641386e-08 1.7367439112151192e-07 0.0000000000000000e+00  -5.6785281639216460e-08 4.5940944194682438e-07 0.0000000000000000e+00  4.4204711193403432e-08 1.0586622253057249e-06 0.0000000000000000e+00  0.0000000000000000e+00 0.0000000000000000e+00 0.0000000000000000e+00  1.0331314453915954e-08 2.3390785683003526e-07 0.0000000000000000e+00  -2.4801807065806381e-08 4.6807898987450845e-07 0.0000000000000000e+00  9.7158266991822947e-08 2.1316995738162402e-06 0.0000000000000000e+00  -1.2776873515351580e-07 8.1678996285129539e-07 0.0000000000000000e+00  -8.7590913465394241e-08 5.8557938711514336e-07 0.0000000000000000e+00  -1.1551932712767024e-07 7.6616960740346672e-07 0.0000000000000000e+00  5.5696103486998173e-08 1.3554238942510055e-06 0.0000000000000000e+00  0.0000000000000000e+00 0.0000000000000000e+00 0.0000000000000000e+00  4.0674621588600409e-08 1.0518755662084537e-06 0.0000000000000000e+00  9.7167949394411932e-08 2.1465581171400306e-06 0.0000000000000000e+00  </DataArray> 
</PointData> 
</Piece>
</UnstructuredGrid>
</VTKFile>