<?xml version="1.0"?>
<VTKFile type="UnstructuredGrid"  version="0.1"  >
<UnstructuredGrid>
<Piece  NumberOfPoints="104" NumberOfCells="169">
<Points>
<DataArray  type="Float64"  NumberOfComponents="3"  format="ascii">0.1643783325218296 0.1320455275536215 0  0.1492552100538899 0.1320415135830948 0  0.1603037058708973 0.1432581839427922 0  0.228090483983057 0.1360461642521307 0  0.2156274396954392 0.1428329882811742 0  0.2231096629876289 0.1473860403476538 0  0.1340109150974826 0.1326286508362426 0  0.1230381620938855 0.1450531231009962 0  0.1371388187715824 0.1487519394947238 0  0.1502170850938848 0.1478553695050668 0  0.1843109002236991 0.1108412192449581 0  0.1663792634974669 0.1129031590983526 0  0.1730791557496665 0.09449610930120438 0  0.1497148406801674 0.1059683048239758 0  0.1319376419904144 0.1078314072630599 0  0.1422873301607691 0.09099989767432708 0  0.1292063859387973 0.160179270973018 0  0.235428184091502 0 0  0.2269089833956681 0.04173965335049001 0  0.2054867233040618 0.02496467843107029 0  0.1877417105387872 0.1515259415822739 0  0.1807733240461124 0.153844448527136 0  0.1810237202008071 0.1443964565620037 0  0.1984955210867955 0.1136055788350874 0  0.1897964898761356 0.09526420071455169 0  0.2542757755299287 0.02753888901404131 0  0.2023158100364996 0.1500536585536553 0  0.194974551899914 0.1502531923497262 0  0.1988434545186226 0.1412267786066319 0  0.139904094447954 0.0475963399258769 0  0.1148334976584671 0.02974143409366008 0  0.1520649328173654 0.02654404467430412 0  0.2166911463437691 0.1528682099456123 0  0.2096071079204251 0.1509316448471593 0  0.157033859236083 0.1549203861564464 0  0.1666775543554036 0.1527311555964813 0  0.1709026911846327 0.1428229394764081 0  0.1355360062927427 0.1738833905690768 0  0.13855578359055 0.1617173140777549 0  0.1273239957535082 0 0  0.2166066364647865 0.1318674827965409 0  0.2211645858397942 0.1228171087145059 0  0.122631157988491 0.09257199523221718 0  0.1543497545781645 0.1644684805108295 0  0.1465332544464342 0.1576333074590302 0  0.1768496449561323 0.1335347700706724 0  0.1432528331866671 0.1403427880156989 0  0.2063021547212692 0.09746645431143124 0  0.1445088930113995 0.1682503620331025 0  0.145931504770643 0.1790663128181236 0  0.162910430003803 0.1664684656256651 0  0.1583987151779087 0.1722631454351573 0  0.1581391111780151 0.09342872668547121 0  0.1742197252835808 0.15715869474974 0  0.1682222986673531 0.1613971801805478 0  0.1417345422718611 0.1196357446143074 0  0.1800175691778405 0.1220029873035379 0  0.1900464160197788 0.1434391807715867 0  0.2340427519707383 0.12500661673201 0  0.1746666922495988 0.1499058539490714 0  0.2092567323014181 0.1231268265338988 0  0.2148660291046949 0.1110801690257468 0  0.117949309539449 0.1314289940198134 0  0.1358421380985344 0.07184101253224438 0  0.1134537715612197 0.07678361544475715 0  0.09377624077125973 0 0  0.1970804225914977 0.07638822249409431 0  0.1512336529604225 0.1723680822309486 0  0.1692118283604925 0.1236341708275373 0  0.1777108984146039 0.03960446592307849 0  0.1570548482231846 0.05573307794728176 0  0.1564186559410363 0.1212209553520046 0  0.2067838776803175 0.1442269954006475 0  0.1547844879126891 0.178656207771761 0  0.2077074758137319 0.1359897507413737 0  0.1990707649929309 0.1296245621647927 0  0.1595371636519827 0.07838695808624725 0  0.2234150974217223 0.1558215752574715 0  0.1222490905968041 0.0568943244623543 0  0.2571393426600714 0.09909224058133874 0  0.252515959816117 0.07648796931448625 0  0.2416741650815652 0.0950846504064212 0  0.1619806510917199 0.1601561579838679 0  0.2000506922905834 0.05138745584171936 0  0.1769147510702603 0.06290595158306629 0  0.1620856860351972 0 0  0.213756581476409 0.08311851351475982 0  0.2259637082614391 0.09968835807421736 0  0.1981052433264291 0 0  0.2312810177471911 0.08330382810563154 0  0.2178953059102855 0.06599367533480922 0  0.2280545270734199 0.114161215267224 0  0.2437828577465094 0.1110862473067074 0  0.2741016576309132 0 0  0.1874494447592934 0.1304389264391784 0  0.1261668873624441 0.1203748521618074 0  0.1851500288844805 0.1377443395869293 0  0.247794183473202 0.05155939024503531 0  0.179425619413292 0.01748466926548749 0  0.1185608756269049 0.1083965233746596 0  0.1795103306938107 0.08060563341732667 0  0.1927059842241056 0.1364147326068345 0  0.2356079172485811 0.06536850945193971 0  0.1897996484266387 0.1213827416278163 0  </DataArray>
</Points>
<Cells>
<DataArray  type="UInt32"  Name="connectivity"  format="ascii">0 1 2  3 4 5  6 7 8  9 1 2  10 11 12  13 14 15  16 7 8  17 18 19  20 21 22  10 23 24  17 18 25  26 27 28  29 30 31  32 33 4  34 35 2  0 36 2  16 37 38  39 30 31  3 40 41  42 14 15  34 43 44  0 36 45  6 8 46  47 23 24  48 37 38  3 4 40  48 49 37  9 1 46  9 8 44  9 34 2  50 51 43  11 12 52  53 54 35  48 43 44  13 14 55  10 11 56  13 11 52  8 44 38  36 35 2  20 22 57  3 58 41  21 22 59  36 22 45  9 34 44  60 23 61  6 7 62  42 63 64  27 28 57  65 39 30  66 47 24  48 43 67  11 56 68  48 49 67  6 1 55  69 31 70  29 31 70  0 1 71  26 28 72  27 20 57  32 4 5  47 23 61  33 4 72  73 49 67  60 74 75  16 8 38  10 12 24  51 43 67  60 74 40  6 1 46  76 63 15  13 11 71  42 63 15  74 28 75  77 32 5  76 63 70  29 30 78  79 80 81  53 35 59  50 43 82  66 83 84  39 85 31  54 35 82  66 47 86  47 87 86  88 17 19  69 83 19  74 4 40  51 73 67  36 35 59  89 80 81  66 83 90  47 61 87  60 75 23  91 92 87  17 93 25  94 45 56  36 22 59  9 8 46  6 55 95  13 55 71  1 55 71  22 45 96  91 92 58  18 25 97  0 45 68  21 53 59  29 63 70  69 19 98  69 83 84  76 15 52  42 14 99  63 64 78  76 12 100  33 26 72  74 28 72  34 43 82  28 75 101  45 56 68  74 4 72  34 35 82  18 90 102  75 23 103  94 75 103  14 55 95  13 15 52  76 84 100  85 88 98  18 83 90  0 71 68  69 84 70  92 87 81  76 84 70  76 12 52  89 90 86  66 90 86  18 97 102  94 45 96  89 87 86  12 24 100  89 80 102  18 83 19  66 24 100  94 75 101  66 84 100  48 44 38  89 90 102  69 31 98  54 50 82  29 63 78  60 61 41  11 71 68  10 23 103  91 61 87  94 56 103  14 99 95  80 97 102  91 58 41  22 57 96  60 40 41  28 57 101  85 31 98  10 56 103  91 61 41  6 62 95  88 19 98  79 92 81  57 96 101  89 87 81  94 96 101  </DataArray>
<DataArray  type="UInt32"  Name="offsets"  format="ascii">3 6 9 12 15 18 21 24 27 30 33 36 39 42 45 48 51 54 57 60 63 66 69 72 75 78 81 84 87 90 93 96 99 102 105 108 111 114 117 120 123 126 129 132 135 138 141 144 147 150 153 156 159 162 165 168 171 174 177 180 183 186 189 192 195 198 201 204 207 210 213 216 219 222 225 228 231 234 237 240 243 246 249 252 255 258 261 264 267 270 273 276 279 282 285 288 291 294 297 300 303 306 309 312 315 318 321 324 327 330 333 336 339 342 345 348 351 354 357 360 363 366 369 372 375 378 381 384 387 390 393 396 399 402 405 408 411 414 417 420 423 426 429 432 435 438 441 444 447 450 453 456 459 462 465 468 471 474 477 480 483 486 489 492 495 498 501 504 507 </DataArray>
<DataArray  type="UInt8"  Name="types"  format="ascii">5 5 5 5 5 5 5 5 5 5 5 5 5 5 5 5 5 5 5 5 5 5 5 5 5 5 5 5 5 5 5 5 5 5 5 5 5 5 5 5 5 5 5 5 5 5 5 5 5 5 5 5 5 5 5 5 5 5 5 5 5 5 5 5 5 5 5 5 5 5 5 5 5 5 5 5 5 5 5 5 5 5 5 5 5 5 5 5 5 5 5 5 5 5 5 5 5 5 5 5 5 5 5 5 5 5 5 5 5 5 5 5 5 5 5 5 5 5 5 5 5 5 5 5 5 5 5 5 5 5 5 5 5 5 5 5 5 5 5 5 5 5 5 5 5 5 5 5 5 5 5 5 5 5 5 5 5 5 5 5 5 5 5 5 5 5 5 5 5 </DataArray>
</Cells>
<PointData  Vectors="f_43-1"> 
<DataArray  type="Float64"  Name="f_43-1"  NumberOfComponents="3" format="ascii">9.6549709138903693e-08 1.7013824304110961e-06 0.0000000000000000e+00  7.4638989274482533e-08 1.4069412173199192e-06 0.0000000000000000e+00  5.7893691313170149e-08 1.0573686696083348e-06 0.0000000000000000e+00  6.2370177945982703e-07 7.8896678029578197e-06 0.0000000000000000e+00  2.4536411443062341e-07 3.2256384857567009e-06 0.0000000000000000e+00  2.8478227254121501e-07 3.3874995327904572e-06 0.0000000000000000e+00  5.6646603637832863e-08 1.1662330640565467e-06 0.0000000000000000e+00  3.2823984879202919e-08 8.3488417139454023e-07 0.0000000000000000e+00  3.6019805849304380e-08 8.2281363817345393e-07 0.0000000000000000e+00  4.2866177406637114e-08 8.5720191222058080e-07 0.0000000000000000e+00  2.3206077552365203e-07 3.9583552969112505e-06 0.0000000000000000e+00  1.5156078718558935e-07 2.6808334628986684e-06 0.0000000000000000e+00  1.9844124846643769e-07 3.5849287832503720e-06 0.0000000000000000e+00  1.1566642121724974e-07 2.1401200480600126e-06 0.0000000000000000e+00  8.0101780750794408e-08 1.5576989706456327e-06 0.0000000000000000e+00  1.0726975307222820e-07 2.0285183769429674e-06 0.0000000000000000e+00  1.8178099617688842e-08 6.0640155733316809e-07 0.0000000000000000e+00  0.0000000000000000e+00 0.0000000000000000e+00 0.0000000000000000e+00  2.6253547590926082e-07 6.1644664762858931e-06 0.0000000000000000e+00  1.2124202297797516e-07 2.7043095555733483e-06 0.0000000000000000e+00  0.0000000000000000e+00 0.0000000000000000e+00 0.0000000000000000e+00  0.0000000000000000e+00 0.0000000000000000e+00 0.0000000000000000e+00  6.0087213028584363e-08 9.8777765283675116e-07 0.0000000000000000e+00  3.2071700742225897e-07 5.2494467103559253e-06 0.0000000000000000e+00  2.8234814195534534e-07 5.0118630837607985e-06 0.0000000000000000e+00  2.0720994315292478e-07 6.1746441943459352e-06 0.0000000000000000e+00  0.0000000000000000e+00 0.0000000000000000e+00 0.0000000000000000e+00  0.0000000000000000e+00 0.0000000000000000e+00 0.0000000000000000e+00  1.2203140517971890e-07 1.8237511987928953e-06 0.0000000000000000e+00  7.6314892764709204e-08 1.4930538505090279e-06 0.0000000000000000e+00  3.2106498029148306e-08 6.3672923221185779e-07 0.0000000000000000e+00  5.6637272731004607e-08 1.1294790803972401e-06 0.0000000000000000e+00  0.0000000000000000e+00 0.0000000000000000e+00 0.0000000000000000e+00  0.0000000000000000e+00 0.0000000000000000e+00 0.0000000000000000e+00  2.7789842628688915e-08 5.5133016422255988e-07 0.0000000000000000e+00  2.7732160910154042e-08 5.0242337533900856e-07 0.0000000000000000e+00  6.4442432994503006e-08 1.1117681796133050e-06 0.0000000000000000e+00  4.9403698711409939e-09 3.7525640767110069e-07 0.0000000000000000e+00  1.8649135352483169e-08 5.4011134627101496e-07 0.0000000000000000e+00  0.0000000000000000e+00 0.0000000000000000e+00 0.0000000000000000e+00  4.2203690478502133e-07 5.8900235815815519e-06 0.0000000000000000e+00  5.6632515286951167e-07 8.2511182667735186e-06 0.0000000000000000e+00  7.2645284780054278e-08 1.4303552626072892e-06 0.0000000000000000e+00  1.2129133863585558e-08 2.8252192501514671e-07 0.0000000000000000e+00  2.4858854312914234e-08 5.7426912845348204e-07 0.0000000000000000e+00  1.1528027588549588e-07 1.9326467252122067e-06 0.0000000000000000e+00  5.3176261920455516e-08 1.0713040278398180e-06 0.0000000000000000e+00  4.0461586095692223e-07 7.0437043635277539e-06 0.0000000000000000e+00  1.1069415816815371e-08 3.5787115980940630e-07 0.0000000000000000e+00  1.8949336815520581e-09 1.7747287213312216e-07 0.0000000000000000e+00  0.0000000000000000e+00 0.0000000000000000e+00 0.0000000000000000e+00  0.0000000000000000e+00 0.0000000000000000e+00 0.0000000000000000e+00  1.4637935921899457e-07 2.6973841509760891e-06 0.0000000000000000e+00  0.0000000000000000e+00 0.0000000000000000e+00 0.0000000000000000e+00  0.0000000000000000e+00 0.0000000000000000e+00 0.0000000000000000e+00  8.4007791937402194e-08 1.6012474289965397e-06 0.0000000000000000e+00  1.7634322327337678e-07 2.9647267543134022e-06 0.0000000000000000e+00  7.4084836388009983e-08 1.1625882548293103e-06 0.0000000000000000e+00  8.3895894990431079e-07 1.1541505600341689e-05 0.0000000000000000e+00  3.1645256592693807e-08 5.4143027990532380e-07 0.0000000000000000e+00  3.8743530334491530e-07 5.8771087210546529e-06 0.0000000000000000e+00  4.9835515383008585e-07 7.9793688832955790e-06 0.0000000000000000e+00  4.3184079320924651e-08 9.8724102513268719e-07 0.0000000000000000e+00  9.1287938760063988e-08 1.7596517225223661e-06 0.0000000000000000e+00  6.0424443894199359e-08 1.2018585662672066e-06 0.0000000000000000e+00  0.0000000000000000e+00 0.0000000000000000e+00 0.0000000000000000e+00  2.9947129371280972e-07 5.6850989343466539e-06 0.0000000000000000e+00  5.2739635645230546e-09 1.7265258252868387e-07 0.0000000000000000e+00  1.3358263893289998e-07 2.3180975012314022e-06 0.0000000000000000e+00  1.2607841408251889e-07 2.5577349360496783e-06 0.0000000000000000e+00  1.1740545344789952e-07 2.2826180227849390e-06 0.0000000000000000e+00  1.0845305496022425e-07 1.9633607797756448e-06 0.0000000000000000e+00  1.2302368769453799e-07 1.7279356691941172e-06 0.0000000000000000e+00  0.0000000000000000e+00 0.0000000000000000e+00 0.0000000000000000e+00  2.5350214937993478e-07 3.6422234192522040e-06 0.0000000000000000e+00  2.4003513262620933e-07 3.6934918430651547e-06 0.0000000000000000e+00  1.4839323734018853e-07 2.7915849862815805e-06 0.0000000000000000e+00  0.0000000000000000e+00 0.0000000000000000e+00 0.0000000000000000e+00  6.2316019445797149e-08 1.2232417993974155e-06 0.0000000000000000e+00  1.0515612284566558e-06 1.9501123088810630e-05 0.0000000000000000e+00  6.8482446860711247e-07 1.5251699217076429e-05 0.0000000000000000e+00  7.9172345370606118e-07 1.4426926243857238e-05 0.0000000000000000e+00  1.2745154700917628e-08 2.5212458481852702e-07 0.0000000000000000e+00  2.2710078092905373e-07 4.6981817924677089e-06 0.0000000000000000e+00  1.8278288128301586e-07 3.5468738693552010e-06 0.0000000000000000e+00  0.0000000000000000e+00 0.0000000000000000e+00 0.0000000000000000e+00  4.3009332312309003e-07 8.0686232565773408e-06 0.0000000000000000e+00  6.2126479035508770e-07 1.0656961750420772e-05 0.0000000000000000e+00  0.0000000000000000e+00 0.0000000000000000e+00 0.0000000000000000e+00  5.7920166004398926e-07 1.1224120783969170e-05 0.0000000000000000e+00  3.7485603114314413e-07 7.7046322283762151e-06 0.0000000000000000e+00  7.0025244075911839e-07 1.0746575813400926e-05 0.0000000000000000e+00  9.8640680256326494e-07 1.5549393025777606e-05 0.0000000000000000e+00  0.0000000000000000e+00 0.0000000000000000e+00 0.0000000000000000e+00  1.6651115950630137e-07 2.6861174618950133e-06 0.0000000000000000e+00  6.1747945252407616e-08 1.2623236526438221e-06 0.0000000000000000e+00  1.1038120974075074e-07 1.7810240664792043e-06 0.0000000000000000e+00  4.0149326322235876e-07 1.0220066281879440e-05 0.0000000000000000e+00  5.9124307474530180e-08 1.2344997364684614e-06 0.0000000000000000e+00  6.1312759313773085e-08 1.2515811282722986e-06 0.0000000000000000e+00  2.2082607506969273e-07 4.1104592794979055e-06 0.0000000000000000e+00  1.4511415225262930e-07 2.2622383788191531e-06 0.0000000000000000e+00  4.6957873906287322e-07 1.0330591984209048e-05 0.0000000000000000e+00  2.2793521461660334e-07 3.7225870043725416e-06 0.0000000000000000e+00  </DataArray> 
</PointData> 
</Piece>
</UnstructuredGrid>
</VTKFile>