<?xml version="1.0"?>
<VTKFile type="UnstructuredGrid"  version="0.1"  >
<UnstructuredGrid>
<Piece  NumberOfPoints="104" NumberOfCells="169">
<Points>
<DataArray  type="Float64"  NumberOfComponents="3"  format="ascii">0.1643783325218296 0.1320455275536215 0  0.1492552100538899 0.1320415135830948 0  0.1603037058708973 0.1432581839427922 0  0.228090483983057 0.1360461642521307 0  0.2156274396954392 0.1428329882811742 0  0.2231096629876289 0.1473860403476538 0  0.1340109150974826 0.1326286508362426 0  0.1230381620938855 0.1450531231009962 0  0.1371388187715824 0.1487519394947238 0  0.1502170850938848 0.1478553695050668 0  0.1843109002236991 0.1108412192449581 0  0.1663792634974669 0.1129031590983526 0  0.1730791557496665 0.09449610930120438 0  0.1497148406801674 0.1059683048239758 0  0.1319376419904144 0.1078314072630599 0  0.1422873301607691 0.09099989767432708 0  0.1292063859387973 0.160179270973018 0  0.235428184091502 0 0  0.2269089833956681 0.04173965335049001 0  0.2054867233040618 0.02496467843107029 0  0.1877417105387872 0.1515259415822739 0  0.1807733240461124 0.153844448527136 0  0.1810237202008071 0.1443964565620037 0  0.1984955210867955 0.1136055788350874 0  0.1897964898761356 0.09526420071455169 0  0.2542757755299287 0.02753888901404131 0  0.2023158100364996 0.1500536585536553 0  0.194974551899914 0.1502531923497262 0  0.1988434545186226 0.1412267786066319 0  0.139904094447954 0.0475963399258769 0  0.1148334976584671 0.02974143409366008 0  0.1520649328173654 0.02654404467430412 0  0.2166911463437691 0.1528682099456123 0  0.2096071079204251 0.1509316448471593 0  0.157033859236083 0.1549203861564464 0  0.1666775543554036 0.1527311555964813 0  0.1709026911846327 0.1428229394764081 0  0.1355360062927427 0.1738833905690768 0  0.13855578359055 0.1617173140777549 0  0.1273239957535082 0 0  0.2166066364647865 0.1318674827965409 0  0.2211645858397942 0.1228171087145059 0  0.122631157988491 0.09257199523221718 0  0.1543497545781645 0.1644684805108295 0  0.1465332544464342 0.1576333074590302 0  0.1768496449561323 0.1335347700706724 0  0.1432528331866671 0.1403427880156989 0  0.2063021547212692 0.09746645431143124 0  0.1445088930113995 0.1682503620331025 0  0.145931504770643 0.1790663128181236 0  0.162910430003803 0.1664684656256651 0  0.1583987151779087 0.1722631454351573 0  0.1581391111780151 0.09342872668547121 0  0.1742197252835808 0.15715869474974 0  0.1682222986673531 0.1613971801805478 0  0.1417345422718611 0.1196357446143074 0  0.1800175691778405 0.1220029873035379 0  0.1900464160197788 0.1434391807715867 0  0.2340427519707383 0.12500661673201 0  0.1746666922495988 0.1499058539490714 0  0.2092567323014181 0.1231268265338988 0  0.2148660291046949 0.1110801690257468 0  0.117949309539449 0.1314289940198134 0  0.1358421380985344 0.07184101253224438 0  0.1134537715612197 0.07678361544475715 0  0.09377624077125973 0 0  0.1970804225914977 0.07638822249409431 0  0.1512336529604225 0.1723680822309486 0  0.1692118283604925 0.1236341708275373 0  0.1777108984146039 0.03960446592307849 0  0.1570548482231846 0.05573307794728176 0  0.1564186559410363 0.1212209553520046 0  0.2067838776803175 0.1442269954006475 0  0.1547844879126891 0.178656207771761 0  0.2077074758137319 0.1359897507413737 0  0.1990707649929309 0.1296245621647927 0  0.1595371636519827 0.07838695808624725 0  0.2234150974217223 0.1558215752574715 0  0.1222490905968041 0.0568943244623543 0  0.2571393426600714 0.09909224058133874 0  0.252515959816117 0.07648796931448625 0  0.2416741650815652 0.0950846504064212 0  0.1619806510917199 0.1601561579838679 0  0.2000506922905834 0.05138745584171936 0  0.1769147510702603 0.06290595158306629 0  0.1620856860351972 0 0  0.213756581476409 0.08311851351475982 0  0.2259637082614391 0.09968835807421736 0  0.1981052433264291 0 0  0.2312810177471911 0.08330382810563154 0  0.2178953059102855 0.06599367533480922 0  0.2280545270734199 0.114161215267224 0  0.2437828577465094 0.1110862473067074 0  0.2741016576309132 0 0  0.1874494447592934 0.1304389264391784 0  0.1261668873624441 0.1203748521618074 0  0.1851500288844805 0.1377443395869293 0  0.247794183473202 0.05155939024503531 0  0.179425619413292 0.01748466926548749 0  0.1185608756269049 0.1083965233746596 0  0.1795103306938107 0.08060563341732667 0  0.1927059842241056 0.1364147326068345 0  0.2356079172485811 0.06536850945193971 0  0.1897996484266387 0.1213827416278163 0  </DataArray>
</Points>
<Cells>
<DataArray  type="UInt32"  Name="connectivity"  format="ascii">0 1 2  3 4 5  6 7 8  9 1 2  10 11 12  13 14 15  16 7 8  17 18 19  20 21 22  10 23 24  17 18 25  26 27 28  29 30 31  32 33 4  34 35 2  0 36 2  16 37 38  39 30 31  3 40 41  42 14 15  34 43 44  0 36 45  6 8 46  47 23 24  48 37 38  3 4 40  48 49 37  9 1 46  9 8 44  9 34 2  50 51 43  11 12 52  53 54 35  48 43 44  13 14 55  10 11 56  13 11 52  8 44 38  36 35 2  20 22 57  3 58 41  21 22 59  36 22 45  9 34 44  60 23 61  6 7 62  42 63 64  27 28 57  65 39 30  66 47 24  48 43 67  11 56 68  48 49 67  6 1 55  69 31 70  29 31 70  0 1 71  26 28 72  27 20 57  32 4 5  47 23 61  33 4 72  73 49 67  60 74 75  16 8 38  10 12 24  51 43 67  60 74 40  6 1 46  76 63 15  13 11 71  42 63 15  74 28 75  77 32 5  76 63 70  29 30 78  79 80 81  53 35 59  50 43 82  66 83 84  39 85 31  54 35 82  66 47 86  47 87 86  88 17 19  69 83 19  74 4 40  51 73 67  36 35 59  89 80 81  66 83 90  47 61 87  60 75 23  91 92 87  17 93 25  94 45 56  36 22 59  9 8 46  6 55 95  13 55 71  1 55 71  22 45 96  91 92 58  18 25 97  0 45 68  21 53 59  29 63 70  69 19 98  69 83 84  76 15 52  42 14 99  63 64 78  76 12 100  33 26 72  74 28 72  34 43 82  28 75 101  45 56 68  74 4 72  34 35 82  18 90 102  75 23 103  94 75 103  14 55 95  13 15 52  76 84 100  85 88 98  18 83 90  0 71 68  69 84 70  92 87 81  76 84 70  76 12 52  89 90 86  66 90 86  18 97 102  94 45 96  89 87 86  12 24 100  89 80 102  18 83 19  66 24 100  94 75 101  66 84 100  48 44 38  89 90 102  69 31 98  54 50 82  29 63 78  60 61 41  11 71 68  10 23 103  91 61 87  94 56 103  14 99 95  80 97 102  91 58 41  22 57 96  60 40 41  28 57 101  85 31 98  10 56 103  91 61 41  6 62 95  88 19 98  79 92 81  57 96 101  89 87 81  94 96 101  </DataArray>
<DataArray  type="UInt32"  Name="offsets"  format="ascii">3 6 9 12 15 18 21 24 27 30 33 36 39 42 45 48 51 54 57 60 63 66 69 72 75 78 81 84 87 90 93 96 99 102 105 108 111 114 117 120 123 126 129 132 135 138 141 144 147 150 153 156 159 162 165 168 171 174 177 180 183 186 189 192 195 198 201 204 207 210 213 216 219 222 225 228 231 234 237 240 243 246 249 252 255 258 261 264 267 270 273 276 279 282 285 288 291 294 297 300 303 306 309 312 315 318 321 324 327 330 333 336 339 342 345 348 351 354 357 360 363 366 369 372 375 378 381 384 387 390 393 396 399 402 405 408 411 414 417 420 423 426 429 432 435 438 441 444 447 450 453 456 459 462 465 468 471 474 477 480 483 486 489 492 495 498 501 504 507 </DataArray>
<DataArray  type="UInt8"  Name="types"  format="ascii">5 5 5 5 5 5 5 5 5 5 5 5 5 5 5 5 5 5 5 5 5 5 5 5 5 5 5 5 5 5 5 5 5 5 5 5 5 5 5 5 5 5 5 5 5 5 5 5 5 5 5 5 5 5 5 5 5 5 5 5 5 5 5 5 5 5 5 5 5 5 5 5 5 5 5 5 5 5 5 5 5 5 5 5 5 5 5 5 5 5 5 5 5 5 5 5 5 5 5 5 5 5 5 5 5 5 5 5 5 5 5 5 5 5 5 5 5 5 5 5 5 5 5 5 5 5 5 5 5 5 5 5 5 5 5 5 5 5 5 5 5 5 5 5 5 5 5 5 5 5 5 5 5 5 5 5 5 5 5 5 5 5 5 5 5 5 5 5 5 </DataArray>
</Cells>
<PointData  Vectors="f_43-1"> 
<DataArray  type="Float64"  Name="f_43-1"  NumberOfComponents="3" format="ascii">3.0908460763968922e-08 -5.0187717065472142e-07 0.0000000000000000e+00  2.7131762758126352e-08 -4.2067525255082459e-07 0.0000000000000000e+00  2.0088925170206378e-08 -3.1341961324670611e-07 0.0000000000000000e+00  1.3167008617986894e-07 -2.0442851000136620e-06 0.0000000000000000e+00  5.4064003891874002e-08 -8.5247017977376875e-07 0.0000000000000000e+00  5.6282129706800659e-08 -8.5413199796423079e-07 0.0000000000000000e+00  2.4425634152673065e-08 -3.5308577828312582e-07 0.0000000000000000e+00  2.0800620918506765e-08 -2.5704130008291609e-07 0.0000000000000000e+00  1.9071143055168505e-08 -2.5062904343849105e-07 0.0000000000000000e+00  1.7782849118678229e-08 -2.5734752675963411e-07 0.0000000000000000e+00  6.8386603227806578e-08 -1.1605141483822891e-06 0.0000000000000000e+00  4.7509218804802931e-08 -7.9476515370640886e-07 0.0000000000000000e+00  6.2518687565088788e-08 -1.0722635584721207e-06 0.0000000000000000e+00  3.9051064580775615e-08 -6.4235439315680955e-07 0.0000000000000000e+00  3.0023755321244607e-08 -4.7140879262888900e-07 0.0000000000000000e+00  3.7040535670091154e-08 -6.1374148955625743e-07 0.0000000000000000e+00  1.7603495023741911e-08 -1.8909915696342878e-07 0.0000000000000000e+00  0.0000000000000000e+00 0.0000000000000000e+00 0.0000000000000000e+00  1.0513207138966259e-07 -1.9889461039242779e-06 0.0000000000000000e+00  4.6348123686650827e-08 -8.6275418370588152e-07 0.0000000000000000e+00  0.0000000000000000e+00 0.0000000000000000e+00 0.0000000000000000e+00  0.0000000000000000e+00 0.0000000000000000e+00 0.0000000000000000e+00  1.7348037529803385e-08 -2.8532158937751434e-07 0.0000000000000000e+00  8.9653761279190420e-08 -1.5156609698676287e-06 0.0000000000000000e+00  8.6192958494550631e-08 -1.4897740523498064e-06 0.0000000000000000e+00  1.0485242375418203e-07 -2.1053879910311797e-06 0.0000000000000000e+00  0.0000000000000000e+00 0.0000000000000000e+00 0.0000000000000000e+00  0.0000000000000000e+00 0.0000000000000000e+00 0.0000000000000000e+00  3.1040407075525328e-08 -5.0899911491167276e-07 0.0000000000000000e+00  2.6723813634182582e-08 -4.5850363923941921e-07 0.0000000000000000e+00  1.1739115568291603e-08 -1.9596488982112643e-07 0.0000000000000000e+00  1.9895435398232822e-08 -3.4939599028726975e-07 0.0000000000000000e+00  0.0000000000000000e+00 0.0000000000000000e+00 0.0000000000000000e+00  0.0000000000000000e+00 0.0000000000000000e+00 0.0000000000000000e+00  1.1430379297152716e-08 -1.6505353140121810e-07 0.0000000000000000e+00  9.5590892915661890e-09 -1.4842557250750833e-07 0.0000000000000000e+00  2.0119032611878863e-08 -3.2556829799144570e-07 0.0000000000000000e+00  1.3598009389511153e-08 -1.1987998955178807e-07 0.0000000000000000e+00  1.4674578591268479e-08 -1.6692471393277096e-07 0.0000000000000000e+00  0.0000000000000000e+00 0.0000000000000000e+00 0.0000000000000000e+00  9.9108388718569357e-08 -1.5959882368760361e-06 0.0000000000000000e+00  1.3905967007301381e-07 -2.2726379698181178e-06 0.0000000000000000e+00  2.7480156880653642e-08 -4.3534621125048020e-07 0.0000000000000000e+00  6.7180217133516096e-09 -8.5846470043565483e-08 0.0000000000000000e+00  1.3518760275759216e-08 -1.7463529804524098e-07 0.0000000000000000e+00  3.3999148402213939e-08 -5.6226119830340790e-07 0.0000000000000000e+00  2.2193443712324299e-08 -3.2266042391016952e-07 0.0000000000000000e+00  1.2011427268353364e-07 -2.0766762445379974e-06 0.0000000000000000e+00  1.0287439725340385e-08 -1.1112514614035043e-07 0.0000000000000000e+00  6.6233206275815588e-09 -5.6838218794290878e-08 0.0000000000000000e+00  0.0000000000000000e+00 0.0000000000000000e+00 0.0000000000000000e+00  0.0000000000000000e+00 0.0000000000000000e+00 0.0000000000000000e+00  4.7942640463077742e-08 -8.1129723759230071e-07 0.0000000000000000e+00  0.0000000000000000e+00 0.0000000000000000e+00 0.0000000000000000e+00  0.0000000000000000e+00 0.0000000000000000e+00 0.0000000000000000e+00  3.0697339477534206e-08 -4.8142893482349336e-07 0.0000000000000000e+00  5.1581505601147921e-08 -8.6438379010064721e-07 0.0000000000000000e+00  2.0026048569377247e-08 -3.3057404735227787e-07 0.0000000000000000e+00  1.9357833999269159e-07 -3.0951064824733866e-06 0.0000000000000000e+00  9.7888233231116438e-09 -1.5807915346771976e-07 0.0000000000000000e+00  9.9564362113547368e-08 -1.6477620962916068e-06 0.0000000000000000e+00  1.3528553709737382e-07 -2.2807958502862368e-06 0.0000000000000000e+00  2.2560799243882079e-08 -3.0244734321382236e-07 0.0000000000000000e+00  3.2028271101289753e-08 -5.3646466715388219e-07 0.0000000000000000e+00  2.3048048726867514e-08 -3.6751675870825056e-07 0.0000000000000000e+00  0.0000000000000000e+00 0.0000000000000000e+00 0.0000000000000000e+00  9.7505542724634614e-08 -1.7272538807605646e-06 0.0000000000000000e+00  4.9971486861825859e-09 -5.3603927256268622e-08 0.0000000000000000e+00  4.1161852707043469e-08 -6.8227180434270658e-07 0.0000000000000000e+00  4.4292550275222426e-08 -7.9495591862843014e-07 0.0000000000000000e+00  4.0167129333394600e-08 -7.0002703411444388e-07 0.0000000000000000e+00  3.5927524139684094e-08 -5.8427579002248747e-07 0.0000000000000000e+00  2.9165919946851808e-08 -4.7015743337565469e-07 0.0000000000000000e+00  0.0000000000000000e+00 0.0000000000000000e+00 0.0000000000000000e+00  6.1550718796265964e-08 -1.0000143329561086e-06 0.0000000000000000e+00  6.2922889396373973e-08 -1.0423527522154226e-06 0.0000000000000000e+00  4.9238909928660714e-08 -8.4633817303269752e-07 0.0000000000000000e+00  0.0000000000000000e+00 0.0000000000000000e+00 0.0000000000000000e+00  2.2573218491668377e-08 -3.7482530420270471e-07 0.0000000000000000e+00  3.3028936377100951e-07 -5.7923372738957386e-06 0.0000000000000000e+00  2.5897538779742609e-07 -4.8117975976120557e-06 0.0000000000000000e+00  2.4449594685444688e-07 -4.2876641041227917e-06 0.0000000000000000e+00  5.2296258077465673e-09 -7.5386877140296664e-08 0.0000000000000000e+00  8.0592741497697620e-08 -1.4663093379760974e-06 0.0000000000000000e+00  6.1483460594183762e-08 -1.0867988508968721e-06 0.0000000000000000e+00  0.0000000000000000e+00 0.0000000000000000e+00 0.0000000000000000e+00  1.3755276967023970e-07 -2.4369388301559730e-06 0.0000000000000000e+00  1.8070322075179717e-07 -3.1154555963976150e-06 0.0000000000000000e+00  0.0000000000000000e+00 0.0000000000000000e+00 0.0000000000000000e+00  1.9075009957576879e-07 -3.4142716459567318e-06 0.0000000000000000e+00  1.3145200728430667e-07 -2.3939742980398415e-06 0.0000000000000000e+00  1.8137811878846446e-07 -3.0152295670406023e-06 0.0000000000000000e+00  2.6232143374940620e-07 -4.3847569514740786e-06 0.0000000000000000e+00  0.0000000000000000e+00 0.0000000000000000e+00 0.0000000000000000e+00  4.6335214811881801e-08 -7.7169916383042855e-07 0.0000000000000000e+00  2.5930064283891650e-08 -3.8328913780517526e-07 0.0000000000000000e+00  3.0886324861977732e-08 -5.1153762001791494e-07 0.0000000000000000e+00  1.7374133758431183e-07 -3.3542084936152993e-06 0.0000000000000000e+00  2.1355500867454861e-08 -3.8710182956170941e-07 0.0000000000000000e+00  2.5377046201346909e-08 -3.8124106549522675e-07 0.0000000000000000e+00  7.1179084750156696e-08 -1.2421632348658771e-06 0.0000000000000000e+00  3.8781344565476111e-08 -6.4174914106025644e-07 0.0000000000000000e+00  1.7578044526816688e-07 -3.2647490549687331e-06 0.0000000000000000e+00  6.3993333655768381e-08 -1.0744218099413112e-06 0.0000000000000000e+00  </DataArray> 
</PointData> 
</Piece>
</UnstructuredGrid>
</VTKFile>