<?xml version="1.0"?>
<VTKFile type="UnstructuredGrid"  version="0.1"  >
<UnstructuredGrid>
<Piece  NumberOfPoints="104" NumberOfCells="169">
<Points>
<DataArray  type="Float64"  NumberOfComponents="3"  format="ascii">0.1643783325218296 0.1320455275536215 0  0.1492552100538899 0.1320415135830948 0  0.1603037058708973 0.1432581839427922 0  0.228090483983057 0.1360461642521307 0  0.2156274396954392 0.1428329882811742 0  0.2231096629876289 0.1473860403476538 0  0.1340109150974826 0.1326286508362426 0  0.1230381620938855 0.1450531231009962 0  0.1371388187715824 0.1487519394947238 0  0.1502170850938848 0.1478553695050668 0  0.1843109002236991 0.1108412192449581 0  0.1663792634974669 0.1129031590983526 0  0.1730791557496665 0.09449610930120438 0  0.1497148406801674 0.1059683048239758 0  0.1319376419904144 0.1078314072630599 0  0.1422873301607691 0.09099989767432708 0  0.1292063859387973 0.160179270973018 0  0.235428184091502 0 0  0.2269089833956681 0.04173965335049001 0  0.2054867233040618 0.02496467843107029 0  0.1877417105387872 0.1515259415822739 0  0.1807733240461124 0.153844448527136 0  0.1810237202008071 0.1443964565620037 0  0.1984955210867955 0.1136055788350874 0  0.1897964898761356 0.09526420071455169 0  0.2542757755299287 0.02753888901404131 0  0.2023158100364996 0.1500536585536553 0  0.194974551899914 0.1502531923497262 0  0.1988434545186226 0.1412267786066319 0  0.139904094447954 0.0475963399258769 0  0.1148334976584671 0.02974143409366008 0  0.1520649328173654 0.02654404467430412 0  0.2166911463437691 0.1528682099456123 0  0.2096071079204251 0.1509316448471593 0  0.157033859236083 0.1549203861564464 0  0.1666775543554036 0.1527311555964813 0  0.1709026911846327 0.1428229394764081 0  0.1355360062927427 0.1738833905690768 0  0.13855578359055 0.1617173140777549 0  0.1273239957535082 0 0  0.2166066364647865 0.1318674827965409 0  0.2211645858397942 0.1228171087145059 0  0.122631157988491 0.09257199523221718 0  0.1543497545781645 0.1644684805108295 0  0.1465332544464342 0.1576333074590302 0  0.1768496449561323 0.1335347700706724 0  0.1432528331866671 0.1403427880156989 0  0.2063021547212692 0.09746645431143124 0  0.1445088930113995 0.1682503620331025 0  0.145931504770643 0.1790663128181236 0  0.162910430003803 0.1664684656256651 0  0.1583987151779087 0.1722631454351573 0  0.1581391111780151 0.09342872668547121 0  0.1742197252835808 0.15715869474974 0  0.1682222986673531 0.1613971801805478 0  0.1417345422718611 0.1196357446143074 0  0.1800175691778405 0.1220029873035379 0  0.1900464160197788 0.1434391807715867 0  0.2340427519707383 0.12500661673201 0  0.1746666922495988 0.1499058539490714 0  0.2092567323014181 0.1231268265338988 0  0.2148660291046949 0.1110801690257468 0  0.117949309539449 0.1314289940198134 0  0.1358421380985344 0.07184101253224438 0  0.1134537715612197 0.07678361544475715 0  0.09377624077125973 0 0  0.1970804225914977 0.07638822249409431 0  0.1512336529604225 0.1723680822309486 0  0.1692118283604925 0.1236341708275373 0  0.1777108984146039 0.03960446592307849 0  0.1570548482231846 0.05573307794728176 0  0.1564186559410363 0.1212209553520046 0  0.2067838776803175 0.1442269954006475 0  0.1547844879126891 0.178656207771761 0  0.2077074758137319 0.1359897507413737 0  0.1990707649929309 0.1296245621647927 0  0.1595371636519827 0.07838695808624725 0  0.2234150974217223 0.1558215752574715 0  0.1222490905968041 0.0568943244623543 0  0.2571393426600714 0.09909224058133874 0  0.252515959816117 0.07648796931448625 0  0.2416741650815652 0.0950846504064212 0  0.1619806510917199 0.1601561579838679 0  0.2000506922905834 0.05138745584171936 0  0.1769147510702603 0.06290595158306629 0  0.1620856860351972 0 0  0.213756581476409 0.08311851351475982 0  0.2259637082614391 0.09968835807421736 0  0.1981052433264291 0 0  0.2312810177471911 0.08330382810563154 0  0.2178953059102855 0.06599367533480922 0  0.2280545270734199 0.114161215267224 0  0.2437828577465094 0.1110862473067074 0  0.2741016576309132 0 0  0.1874494447592934 0.1304389264391784 0  0.1261668873624441 0.1203748521618074 0  0.1851500288844805 0.1377443395869293 0  0.247794183473202 0.05155939024503531 0  0.179425619413292 0.01748466926548749 0  0.1185608756269049 0.1083965233746596 0  0.1795103306938107 0.08060563341732667 0  0.1927059842241056 0.1364147326068345 0  0.2356079172485811 0.06536850945193971 0  0.1897996484266387 0.1213827416278163 0  </DataArray>
</Points>
<Cells>
<DataArray  type="UInt32"  Name="connectivity"  format="ascii">0 1 2  3 4 5  6 7 8  9 1 2  10 11 12  13 14 15  16 7 8  17 18 19  20 21 22  10 23 24  17 18 25  26 27 28  29 30 31  32 33 4  34 35 2  0 36 2  16 37 38  39 30 31  3 40 41  42 14 15  34 43 44  0 36 45  6 8 46  47 23 24  48 37 38  3 4 40  48 49 37  9 1 46  9 8 44  9 34 2  50 51 43  11 12 52  53 54 35  48 43 44  13 14 55  10 11 56  13 11 52  8 44 38  36 35 2  20 22 57  3 58 41  21 22 59  36 22 45  9 34 44  60 23 61  6 7 62  42 63 64  27 28 57  65 39 30  66 47 24  48 43 67  11 56 68  48 49 67  6 1 55  69 31 70  29 31 70  0 1 71  26 28 72  27 20 57  32 4 5  47 23 61  33 4 72  73 49 67  60 74 75  16 8 38  10 12 24  51 43 67  60 74 40  6 1 46  76 63 15  13 11 71  42 63 15  74 28 75  77 32 5  76 63 70  29 30 78  79 80 81  53 35 59  50 43 82  66 83 84  39 85 31  54 35 82  66 47 86  47 87 86  88 17 19  69 83 19  74 4 40  51 73 67  36 35 59  89 80 81  66 83 90  47 61 87  60 75 23  91 92 87  17 93 25  94 45 56  36 22 59  9 8 46  6 55 95  13 55 71  1 55 71  22 45 96  91 92 58  18 25 97  0 45 68  21 53 59  29 63 70  69 19 98  69 83 84  76 15 52  42 14 99  63 64 78  76 12 100  33 26 72  74 28 72  34 43 82  28 75 101  45 56 68  74 4 72  34 35 82  18 90 102  75 23 103  94 75 103  14 55 95  13 15 52  76 84 100  85 88 98  18 83 90  0 71 68  69 84 70  92 87 81  76 84 70  76 12 52  89 90 86  66 90 86  18 97 102  94 45 96  89 87 86  12 24 100  89 80 102  18 83 19  66 24 100  94 75 101  66 84 100  48 44 38  89 90 102  69 31 98  54 50 82  29 63 78  60 61 41  11 71 68  10 23 103  91 61 87  94 56 103  14 99 95  80 97 102  91 58 41  22 57 96  60 40 41  28 57 101  85 31 98  10 56 103  91 61 41  6 62 95  88 19 98  79 92 81  57 96 101  89 87 81  94 96 101  </DataArray>
<DataArray  type="UInt32"  Name="offsets"  format="ascii">3 6 9 12 15 18 21 24 27 30 33 36 39 42 45 48 51 54 57 60 63 66 69 72 75 78 81 84 87 90 93 96 99 102 105 108 111 114 117 120 123 126 129 132 135 138 141 144 147 150 153 156 159 162 165 168 171 174 177 180 183 186 189 192 195 198 201 204 207 210 213 216 219 222 225 228 231 234 237 240 243 246 249 252 255 258 261 264 267 270 273 276 279 282 285 288 291 294 297 300 303 306 309 312 315 318 321 324 327 330 333 336 339 342 345 348 351 354 357 360 363 366 369 372 375 378 381 384 387 390 393 396 399 402 405 408 411 414 417 420 423 426 429 432 435 438 441 444 447 450 453 456 459 462 465 468 471 474 477 480 483 486 489 492 495 498 501 504 507 </DataArray>
<DataArray  type="UInt8"  Name="types"  format="ascii">5 5 5 5 5 5 5 5 5 5 5 5 5 5 5 5 5 5 5 5 5 5 5 5 5 5 5 5 5 5 5 5 5 5 5 5 5 5 5 5 5 5 5 5 5 5 5 5 5 5 5 5 5 5 5 5 5 5 5 5 5 5 5 5 5 5 5 5 5 5 5 5 5 5 5 5 5 5 5 5 5 5 5 5 5 5 5 5 5 5 5 5 5 5 5 5 5 5 5 5 5 5 5 5 5 5 5 5 5 5 5 5 5 5 5 5 5 5 5 5 5 5 5 5 5 5 5 5 5 5 5 5 5 5 5 5 5 5 5 5 5 5 5 5 5 5 5 5 5 5 5 5 5 5 5 5 5 5 5 5 5 5 5 5 5 5 5 5 5 </DataArray>
</Cells>
<PointData  Vectors="f_43-1"> 
<DataArray  type="Float64"  Name="f_43-1"  NumberOfComponents="3" format="ascii">1.5124988805982638e-08 -2.6409810400564557e-07 0.0000000000000000e+00  1.3428586252411776e-08 -2.2793930575514698e-07 0.0000000000000000e+00  1.0087276558090641e-08 -1.6661876185899871e-07 0.0000000000000000e+00  9.3744290805074550e-08 -7.6274656136732732e-07 0.0000000000000000e+00  3.6536920332717168e-08 -3.3919389861666822e-07 0.0000000000000000e+00  4.3992534694417422e-08 -2.9306427013308056e-07 0.0000000000000000e+00  1.2528212055279535e-08 -1.9605640766489578e-07 0.0000000000000000e+00  1.1635807931417521e-08 -1.4625750085142243e-07 0.0000000000000000e+00  1.0389780011650908e-08 -1.3999559029695564e-07 0.0000000000000000e+00  9.2518017414596526e-09 -1.4019989654322371e-07 0.0000000000000000e+00  3.2291963070247407e-08 -5.9967883628796033e-07 0.0000000000000000e+00  2.2189163168689692e-08 -4.2219661353555575e-07 0.0000000000000000e+00  2.7535191405678647e-08 -5.7857661650185351e-07 0.0000000000000000e+00  1.8020964687360230e-08 -3.5099669887140414e-07 0.0000000000000000e+00  1.4304048084842642e-08 -2.6247045477019213e-07 0.0000000000000000e+00  1.6617924122099941e-08 -3.4113949152735811e-07 0.0000000000000000e+00  1.0492510084908604e-08 -1.0884657970013699e-07 0.0000000000000000e+00  0.0000000000000000e+00 0.0000000000000000e+00 0.0000000000000000e+00  2.9413654509272422e-08 -1.2112157254533951e-06 0.0000000000000000e+00  1.4300078764984432e-08 -5.1860140778821849e-07 0.0000000000000000e+00  0.0000000000000000e+00 0.0000000000000000e+00 0.0000000000000000e+00  0.0000000000000000e+00 0.0000000000000000e+00 0.0000000000000000e+00  8.8788131936357928e-09 -1.4316065072389389e-07 0.0000000000000000e+00  4.4262619469888991e-08 -7.5497003445224593e-07 0.0000000000000000e+00  3.8033500559361144e-08 -7.9029528872143504e-07 0.0000000000000000e+00  1.9069304852206616e-08 -1.3863379018780567e-06 0.0000000000000000e+00  0.0000000000000000e+00 0.0000000000000000e+00 0.0000000000000000e+00  0.0000000000000000e+00 0.0000000000000000e+00 0.0000000000000000e+00  1.7537919686216799e-08 -2.3481436719820387e-07 0.0000000000000000e+00  1.1015273275187319e-08 -2.6219662487094859e-07 0.0000000000000000e+00  5.0278984387267966e-09 -1.1314974865524046e-07 0.0000000000000000e+00  7.7283462390374334e-09 -2.0186163803072418e-07 0.0000000000000000e+00  0.0000000000000000e+00 0.0000000000000000e+00 0.0000000000000000e+00  0.0000000000000000e+00 0.0000000000000000e+00 0.0000000000000000e+00  5.9888037130397779e-09 -8.9333959275924895e-08 0.0000000000000000e+00  4.8590669564861810e-09 -7.8301388413488516e-08 0.0000000000000000e+00  1.0072603033010349e-08 -1.6857556336942981e-07 0.0000000000000000e+00  8.6639210801303908e-09 -7.0579967162223803e-08 0.0000000000000000e+00  8.5605561399725490e-09 -9.4835376873668695e-08 0.0000000000000000e+00  0.0000000000000000e+00 0.0000000000000000e+00 0.0000000000000000e+00  6.1282144868384145e-08 -6.7934666964895217e-07 0.0000000000000000e+00  8.0507684415212163e-08 -1.0065519014331137e-06 0.0000000000000000e+00  1.2824038162710157e-08 -2.4556691686499172e-07 0.0000000000000000e+00  3.7375191396222126e-09 -4.7541813037280779e-08 0.0000000000000000e+00  7.4628740950407296e-09 -9.7005518588151436e-08 0.0000000000000000e+00  1.6953137907707767e-08 -2.8665622365829925e-07 0.0000000000000000e+00  1.1436291359280110e-08 -1.7712156147334238e-07 0.0000000000000000e+00  5.3798973102419041e-08 -1.0781549153909747e-06 0.0000000000000000e+00  6.1309778189866654e-09 -6.3370513947404762e-08 0.0000000000000000e+00  4.2516444396694420e-09 -3.3474060585015665e-08 0.0000000000000000e+00  0.0000000000000000e+00 0.0000000000000000e+00 0.0000000000000000e+00  0.0000000000000000e+00 0.0000000000000000e+00 0.0000000000000000e+00  2.1228707253776554e-08 -4.4424757850922295e-07 0.0000000000000000e+00  0.0000000000000000e+00 0.0000000000000000e+00 0.0000000000000000e+00  0.0000000000000000e+00 0.0000000000000000e+00 0.0000000000000000e+00  1.4846377147580124e-08 -2.6415852714136266e-07 0.0000000000000000e+00  2.5170841994497790e-08 -4.4215451412631049e-07 0.0000000000000000e+00  1.0675308595300142e-08 -1.5973729226079107e-07 0.0000000000000000e+00  1.2128938571031001e-07 -1.2703128178108131e-06 0.0000000000000000e+00  4.9500401555292094e-09 -8.1306669856039560e-08 0.0000000000000000e+00  5.4606420096695396e-08 -7.6541736866641367e-07 0.0000000000000000e+00  6.8279161933679813e-08 -1.1051179424110218e-06 0.0000000000000000e+00  1.2038497896748841e-08 -1.7157058935202733e-07 0.0000000000000000e+00  1.3917723063574915e-08 -3.0295900178456118e-07 0.0000000000000000e+00  1.0586996298057136e-08 -2.0957301173051825e-07 0.0000000000000000e+00  0.0000000000000000e+00 0.0000000000000000e+00 0.0000000000000000e+00  3.8646330297994277e-08 -9.5395175883600798e-07 0.0000000000000000e+00  2.9876679628848320e-09 -3.0525026161802376e-08 0.0000000000000000e+00  1.9822714815247066e-08 -3.5696224537288781e-07 0.0000000000000000e+00  1.6191775123607655e-08 -4.6012578430570995e-07 0.0000000000000000e+00  1.6156834500347799e-08 -3.9765299320245980e-07 0.0000000000000000e+00  1.7157038130522227e-08 -3.1345686257642223e-07 0.0000000000000000e+00  1.7945250291222590e-08 -2.0307216768856717e-07 0.0000000000000000e+00  0.0000000000000000e+00 0.0000000000000000e+00 0.0000000000000000e+00  3.6611183762732369e-08 -4.4181687700472715e-07 0.0000000000000000e+00  3.4033247482650987e-08 -4.9342995277914900e-07 0.0000000000000000e+00  2.0868963343807776e-08 -4.7033498478775163e-07 0.0000000000000000e+00  0.0000000000000000e+00 0.0000000000000000e+00 0.0000000000000000e+00  9.8214524382341567e-09 -2.1431467455918061e-07 0.0000000000000000e+00  1.2964710309586870e-07 -2.9967036743266164e-06 0.0000000000000000e+00  7.6858496062132234e-08 -2.7991872273673448e-06 0.0000000000000000e+00  1.0003907423995958e-07 -2.2354648844535469e-06 0.0000000000000000e+00  2.7499493411628484e-09 -4.0683810884986344e-08 0.0000000000000000e+00  2.8003401626494352e-08 -8.4991474625027222e-07 0.0000000000000000e+00  2.4074000277326281e-08 -6.1318974817936133e-07 0.0000000000000000e+00  0.0000000000000000e+00 0.0000000000000000e+00 0.0000000000000000e+00  5.4832374413084010e-08 -1.3242772396250613e-06 0.0000000000000000e+00  8.1807922328548948e-08 -1.5788098570870090e-06 0.0000000000000000e+00  0.0000000000000000e+00 0.0000000000000000e+00 0.0000000000000000e+00  7.1596322142608497e-08 -1.8706573406483262e-06 0.0000000000000000e+00  4.5514719249499174e-08 -1.3698533353739994e-06 0.0000000000000000e+00  9.6871829865488310e-08 -1.3926400718372497e-06 0.0000000000000000e+00  1.3330808578679732e-07 -2.0342338601858593e-06 0.0000000000000000e+00  0.0000000000000000e+00 0.0000000000000000e+00 0.0000000000000000e+00  2.3739879819525282e-08 -3.8169276558540739e-07 0.0000000000000000e+00  1.2990244970155177e-08 -2.1454609117173612e-07 0.0000000000000000e+00  1.5944584526671635e-08 -2.5311027497281089e-07 0.0000000000000000e+00  4.1774373496613270e-08 -2.0876577024650457e-06 0.0000000000000000e+00  7.4585336890660448e-09 -2.2746092282108397e-07 0.0000000000000000e+00  1.2464605516818558e-08 -2.1516436254810890e-07 0.0000000000000000e+00  2.9602405645196576e-08 -6.8245248919520547e-07 0.0000000000000000e+00  2.0740950353677715e-08 -3.0811259344254561e-07 0.0000000000000000e+00  5.4079510901573790e-08 -1.9149777467170937e-06 0.0000000000000000e+00  3.2016761240535865e-08 -5.3629263811415551e-07 0.0000000000000000e+00  </DataArray> 
</PointData> 
</Piece>
</UnstructuredGrid>
</VTKFile>