<?xml version="1.0"?>
<VTKFile type="UnstructuredGrid"  version="0.1"  >
<UnstructuredGrid>
<Piece  NumberOfPoints="104" NumberOfCells="169">
<Points>
<DataArray  type="Float64"  NumberOfComponents="3"  format="ascii">0.1643783325218296 0.1320455275536215 0  0.1492552100538899 0.1320415135830948 0  0.1603037058708973 0.1432581839427922 0  0.228090483983057 0.1360461642521307 0  0.2156274396954392 0.1428329882811742 0  0.2231096629876289 0.1473860403476538 0  0.1340109150974826 0.1326286508362426 0  0.1230381620938855 0.1450531231009962 0  0.1371388187715824 0.1487519394947238 0  0.1502170850938848 0.1478553695050668 0  0.1843109002236991 0.1108412192449581 0  0.1663792634974669 0.1129031590983526 0  0.1730791557496665 0.09449610930120438 0  0.1497148406801674 0.1059683048239758 0  0.1319376419904144 0.1078314072630599 0  0.1422873301607691 0.09099989767432708 0  0.1292063859387973 0.160179270973018 0  0.235428184091502 0 0  0.2269089833956681 0.04173965335049001 0  0.2054867233040618 0.02496467843107029 0  0.1877417105387872 0.1515259415822739 0  0.1807733240461124 0.153844448527136 0  0.1810237202008071 0.1443964565620037 0  0.1984955210867955 0.1136055788350874 0  0.1897964898761356 0.09526420071455169 0  0.2542757755299287 0.02753888901404131 0  0.2023158100364996 0.1500536585536553 0  0.194974551899914 0.1502531923497262 0  0.1988434545186226 0.1412267786066319 0  0.139904094447954 0.0475963399258769 0  0.1148334976584671 0.02974143409366008 0  0.1520649328173654 0.02654404467430412 0  0.2166911463437691 0.1528682099456123 0  0.2096071079204251 0.1509316448471593 0  0.157033859236083 0.1549203861564464 0  0.1666775543554036 0.1527311555964813 0  0.1709026911846327 0.1428229394764081 0  0.1355360062927427 0.1738833905690768 0  0.13855578359055 0.1617173140777549 0  0.1273239957535082 0 0  0.2166066364647865 0.1318674827965409 0  0.2211645858397942 0.1228171087145059 0  0.122631157988491 0.09257199523221718 0  0.1543497545781645 0.1644684805108295 0  0.1465332544464342 0.1576333074590302 0  0.1768496449561323 0.1335347700706724 0  0.1432528331866671 0.1403427880156989 0  0.2063021547212692 0.09746645431143124 0  0.1445088930113995 0.1682503620331025 0  0.145931504770643 0.1790663128181236 0  0.162910430003803 0.1664684656256651 0  0.1583987151779087 0.1722631454351573 0  0.1581391111780151 0.09342872668547121 0  0.1742197252835808 0.15715869474974 0  0.1682222986673531 0.1613971801805478 0  0.1417345422718611 0.1196357446143074 0  0.1800175691778405 0.1220029873035379 0  0.1900464160197788 0.1434391807715867 0  0.2340427519707383 0.12500661673201 0  0.1746666922495988 0.1499058539490714 0  0.2092567323014181 0.1231268265338988 0  0.2148660291046949 0.1110801690257468 0  0.117949309539449 0.1314289940198134 0  0.1358421380985344 0.07184101253224438 0  0.1134537715612197 0.07678361544475715 0  0.09377624077125973 0 0  0.1970804225914977 0.07638822249409431 0  0.1512336529604225 0.1723680822309486 0  0.1692118283604925 0.1236341708275373 0  0.1777108984146039 0.03960446592307849 0  0.1570548482231846 0.05573307794728176 0  0.1564186559410363 0.1212209553520046 0  0.2067838776803175 0.1442269954006475 0  0.1547844879126891 0.178656207771761 0  0.2077074758137319 0.1359897507413737 0  0.1990707649929309 0.1296245621647927 0  0.1595371636519827 0.07838695808624725 0  0.2234150974217223 0.1558215752574715 0  0.1222490905968041 0.0568943244623543 0  0.2571393426600714 0.09909224058133874 0  0.252515959816117 0.07648796931448625 0  0.2416741650815652 0.0950846504064212 0  0.1619806510917199 0.1601561579838679 0  0.2000506922905834 0.05138745584171936 0  0.1769147510702603 0.06290595158306629 0  0.1620856860351972 0 0  0.213756581476409 0.08311851351475982 0  0.2259637082614391 0.09968835807421736 0  0.1981052433264291 0 0  0.2312810177471911 0.08330382810563154 0  0.2178953059102855 0.06599367533480922 0  0.2280545270734199 0.114161215267224 0  0.2437828577465094 0.1110862473067074 0  0.2741016576309132 0 0  0.1874494447592934 0.1304389264391784 0  0.1261668873624441 0.1203748521618074 0  0.1851500288844805 0.1377443395869293 0  0.247794183473202 0.05155939024503531 0  0.179425619413292 0.01748466926548749 0  0.1185608756269049 0.1083965233746596 0  0.1795103306938107 0.08060563341732667 0  0.1927059842241056 0.1364147326068345 0  0.2356079172485811 0.06536850945193971 0  0.1897996484266387 0.1213827416278163 0  </DataArray>
</Points>
<Cells>
<DataArray  type="UInt32"  Name="connectivity"  format="ascii">0 1 2  3 4 5  6 7 8  9 1 2  10 11 12  13 14 15  16 7 8  17 18 19  20 21 22  10 23 24  17 18 25  26 27 28  29 30 31  32 33 4  34 35 2  0 36 2  16 37 38  39 30 31  3 40 41  42 14 15  34 43 44  0 36 45  6 8 46  47 23 24  48 37 38  3 4 40  48 49 37  9 1 46  9 8 44  9 34 2  50 51 43  11 12 52  53 54 35  48 43 44  13 14 55  10 11 56  13 11 52  8 44 38  36 35 2  20 22 57  3 58 41  21 22 59  36 22 45  9 34 44  60 23 61  6 7 62  42 63 64  27 28 57  65 39 30  66 47 24  48 43 67  11 56 68  48 49 67  6 1 55  69 31 70  29 31 70  0 1 71  26 28 72  27 20 57  32 4 5  47 23 61  33 4 72  73 49 67  60 74 75  16 8 38  10 12 24  51 43 67  60 74 40  6 1 46  76 63 15  13 11 71  42 63 15  74 28 75  77 32 5  76 63 70  29 30 78  79 80 81  53 35 59  50 43 82  66 83 84  39 85 31  54 35 82  66 47 86  47 87 86  88 17 19  69 83 19  74 4 40  51 73 67  36 35 59  89 80 81  66 83 90  47 61 87  60 75 23  91 92 87  17 93 25  94 45 56  36 22 59  9 8 46  6 55 95  13 55 71  1 55 71  22 45 96  91 92 58  18 25 97  0 45 68  21 53 59  29 63 70  69 19 98  69 83 84  76 15 52  42 14 99  63 64 78  76 12 100  33 26 72  74 28 72  34 43 82  28 75 101  45 56 68  74 4 72  34 35 82  18 90 102  75 23 103  94 75 103  14 55 95  13 15 52  76 84 100  85 88 98  18 83 90  0 71 68  69 84 70  92 87 81  76 84 70  76 12 52  89 90 86  66 90 86  18 97 102  94 45 96  89 87 86  12 24 100  89 80 102  18 83 19  66 24 100  94 75 101  66 84 100  48 44 38  89 90 102  69 31 98  54 50 82  29 63 78  60 61 41  11 71 68  10 23 103  91 61 87  94 56 103  14 99 95  80 97 102  91 58 41  22 57 96  60 40 41  28 57 101  85 31 98  10 56 103  91 61 41  6 62 95  88 19 98  79 92 81  57 96 101  89 87 81  94 96 101  </DataArray>
<DataArray  type="UInt32"  Name="offsets"  format="ascii">3 6 9 12 15 18 21 24 27 30 33 36 39 42 45 48 51 54 57 60 63 66 69 72 75 78 81 84 87 90 93 96 99 102 105 108 111 114 117 120 123 126 129 132 135 138 141 144 147 150 153 156 159 162 165 168 171 174 177 180 183 186 189 192 195 198 201 204 207 210 213 216 219 222 225 228 231 234 237 240 243 246 249 252 255 258 261 264 267 270 273 276 279 282 285 288 291 294 297 300 303 306 309 312 315 318 321 324 327 330 333 336 339 342 345 348 351 354 357 360 363 366 369 372 375 378 381 384 387 390 393 396 399 402 405 408 411 414 417 420 423 426 429 432 435 438 441 444 447 450 453 456 459 462 465 468 471 474 477 480 483 486 489 492 495 498 501 504 507 </DataArray>
<DataArray  type="UInt8"  Name="types"  format="ascii">5 5 5 5 5 5 5 5 5 5 5 5 5 5 5 5 5 5 5 5 5 5 5 5 5 5 5 5 5 5 5 5 5 5 5 5 5 5 5 5 5 5 5 5 5 5 5 5 5 5 5 5 5 5 5 5 5 5 5 5 5 5 5 5 5 5 5 5 5 5 5 5 5 5 5 5 5 5 5 5 5 5 5 5 5 5 5 5 5 5 5 5 5 5 5 5 5 5 5 5 5 5 5 5 5 5 5 5 5 5 5 5 5 5 5 5 5 5 5 5 5 5 5 5 5 5 5 5 5 5 5 5 5 5 5 5 5 5 5 5 5 5 5 5 5 5 5 5 5 5 5 5 5 5 5 5 5 5 5 5 5 5 5 5 5 5 5 5 5 </DataArray>
</Cells>
<PointData  Vectors="f_43-1"> 
<DataArray  type="Float64"  Name="f_43-1"  NumberOfComponents="3" format="ascii">-1.2627182591206875e-08 9.5124501936312836e-10 0.0000000000000000e+00  -1.0488924640561330e-08 4.7321630447325524e-10 0.0000000000000000e+00  -7.8540082521139301e-09 4.7634763411472290e-10 0.0000000000000000e+00  -5.6172002286159251e-08 1.8908506634001738e-08 0.0000000000000000e+00  -2.3118090591058573e-08 6.9400659704170558e-09 0.0000000000000000e+00  -2.4079814720537889e-08 9.9790470343005211e-09 0.0000000000000000e+00  -8.7175192171179168e-09 8.7722487336022081e-11 0.0000000000000000e+00  -6.2254897514926119e-09 -3.9794308503659459e-10 0.0000000000000000e+00  -6.1287100985557344e-09 -1.7348101653945806e-10 0.0000000000000000e+00  -6.3796825056558222e-09 1.4133075071208616e-10 0.0000000000000000e+00  -2.9267503061919182e-08 2.4536695719179864e-09 0.0000000000000000e+00  -1.9937115288320078e-08 1.3510457368250412e-09 0.0000000000000000e+00  -2.6732549419647089e-08 1.3273861296664556e-09 0.0000000000000000e+00  -1.6007949531009323e-08 7.5829020065809056e-10 0.0000000000000000e+00  -1.1689364442946000e-08 3.4873925591243684e-10 0.0000000000000000e+00  -1.5233563539324839e-08 5.4661435707916221e-10 0.0000000000000000e+00  -4.4905180985255023e-09 -6.4185170758820942e-10 0.0000000000000000e+00  0.0000000000000000e+00 0.0000000000000000e+00 0.0000000000000000e+00  -4.7177539504812012e-08 -4.9570075611423297e-09 0.0000000000000000e+00  -2.0653171116079971e-08 -1.5423183134639198e-09 0.0000000000000000e+00  0.0000000000000000e+00 0.0000000000000000e+00 0.0000000000000000e+00  0.0000000000000000e+00 0.0000000000000000e+00 0.0000000000000000e+00  -7.2727894575215152e-09 8.3990923140293206e-10 0.0000000000000000e+00  -3.8541474484160724e-08 4.1662866957633491e-09 0.0000000000000000e+00  -3.7208315841988472e-08 2.0256276526238064e-09 0.0000000000000000e+00  -4.8497988313154392e-08 -9.6482613411743182e-09 0.0000000000000000e+00  0.0000000000000000e+00 0.0000000000000000e+00 0.0000000000000000e+00  0.0000000000000000e+00 0.0000000000000000e+00 0.0000000000000000e+00  -1.3264920012460584e-08 2.4171124710060929e-09 0.0000000000000000e+00  -1.1291556676659022e-08 1.5934093691545395e-10 0.0000000000000000e+00  -4.8297859003618391e-09 7.9396001521667816e-11 0.0000000000000000e+00  -8.5598981452940537e-09 -1.1708738113789162e-11 0.0000000000000000e+00  0.0000000000000000e+00 0.0000000000000000e+00 0.0000000000000000e+00  0.0000000000000000e+00 0.0000000000000000e+00 0.0000000000000000e+00  -4.0969701265569791e-09 1.0569049893306680e-10 0.0000000000000000e+00  -3.7257845967587148e-09 2.4397239080911606e-10 0.0000000000000000e+00  -8.2267112494193469e-09 7.2581148256802572e-10 0.0000000000000000e+00  -2.7465370037897397e-09 -7.9425764200335466e-10 0.0000000000000000e+00  -4.0025120543637255e-09 -4.2176650339834396e-10 0.0000000000000000e+00  0.0000000000000000e+00 0.0000000000000000e+00 0.0000000000000000e+00  -4.2397549911536596e-08 1.0094156112158105e-08 0.0000000000000000e+00  -5.9532724689625922e-08 1.1624161634492886e-08 0.0000000000000000e+00  -1.0771510674416925e-08 2.6117030977139651e-10 0.0000000000000000e+00  -2.0963257597608307e-09 -7.5007156338852051e-11 0.0000000000000000e+00  -4.2671240732013691e-09 -1.3929002543141654e-10 0.0000000000000000e+00  -1.4266398790615606e-08 1.4520953253414795e-09 0.0000000000000000e+00  -7.9885077529546385e-09 1.4987958489583063e-10 0.0000000000000000e+00  -5.2003355176963662e-08 3.1837194709592232e-09 0.0000000000000000e+00  -2.6441207001716445e-09 -3.6055090009489854e-10 0.0000000000000000e+00  -1.2951254033543673e-09 -4.0443031830989247e-10 0.0000000000000000e+00  0.0000000000000000e+00 0.0000000000000000e+00 0.0000000000000000e+00  0.0000000000000000e+00 0.0000000000000000e+00 0.0000000000000000e+00  -2.0186860020451517e-08 8.8454523833645718e-10 0.0000000000000000e+00  0.0000000000000000e+00 0.0000000000000000e+00 0.0000000000000000e+00  0.0000000000000000e+00 0.0000000000000000e+00 0.0000000000000000e+00  -1.1974880079448069e-08 4.6475668673661893e-10 0.0000000000000000e+00  -2.1892541429937952e-08 2.1159393271806783e-09 0.0000000000000000e+00  -8.5105340288304120e-09 1.2402034980372272e-09 0.0000000000000000e+00  -8.2449933550221799e-08 2.0007394841869558e-08 0.0000000000000000e+00  -4.0016192117681698e-09 3.7433238463851030e-10 0.0000000000000000e+00  -4.2708067588781309e-08 7.0393984652615624e-09 0.0000000000000000e+00  -5.8225765763044485e-08 6.8997469446944298e-09 0.0000000000000000e+00  -7.3916607088264112e-09 -2.0251028933731721e-10 0.0000000000000000e+00  -1.3266853074693771e-08 3.4115599099475873e-10 0.0000000000000000e+00  -9.0786455381411683e-09 1.8444668479693787e-10 0.0000000000000000e+00  0.0000000000000000e+00 0.0000000000000000e+00 0.0000000000000000e+00  -4.2518602237972580e-08 4.3810671212519556e-10 0.0000000000000000e+00  -1.2743919889514402e-09 -1.7846841634687715e-10 0.0000000000000000e+00  -1.7189836546419268e-08 1.3845003830628372e-09 0.0000000000000000e+00  -1.9367402226779750e-08 -3.7570867759384420e-10 0.0000000000000000e+00  -1.7224124082522915e-08 1.9086411050176916e-10 0.0000000000000000e+00  -1.4626627974003998e-08 8.8164100199762130e-10 0.0000000000000000e+00  -1.2475817558056528e-08 2.9441857630665898e-09 0.0000000000000000e+00  0.0000000000000000e+00 0.0000000000000000e+00 0.0000000000000000e+00  -2.6344238718797685e-08 5.6392517538564460e-09 0.0000000000000000e+00  -2.6938770821898039e-08 4.2287923856102438e-09 0.0000000000000000e+00  -2.0957546008736882e-08 6.2428981747239521e-10 0.0000000000000000e+00  0.0000000000000000e+00 0.0000000000000000e+00 0.0000000000000000e+00  -9.2527447311935069e-09 1.8939150628021884e-10 0.0000000000000000e+00  -1.4225128535761974e-07 -8.1196274127252066e-10 0.0000000000000000e+00  -1.1463543918130319e-07 -1.0994995525257196e-08 0.0000000000000000e+00  -1.0592462740672021e-07 1.6605380848167325e-09 0.0000000000000000e+00  -1.8722229916735111e-09 5.0895458608958530e-11 0.0000000000000000e+00  -3.5533176254221872e-08 -1.3234829757645736e-09 0.0000000000000000e+00  -2.6693274682954838e-08 1.3124104255687184e-10 0.0000000000000000e+00  0.0000000000000000e+00 0.0000000000000000e+00 0.0000000000000000e+00  -6.0033504898890734e-08 6.6559957246103666e-10 0.0000000000000000e+00  -7.8124407936523274e-08 4.9403172969998797e-09 0.0000000000000000e+00  0.0000000000000000e+00 0.0000000000000000e+00 0.0000000000000000e+00  -8.3444260347150120e-08 -1.2568465770577594e-09 0.0000000000000000e+00  -5.7981966598059172e-08 -2.3597960783747898e-09 0.0000000000000000e+00  -7.7744931002876471e-08 1.1394933373585012e-08 0.0000000000000000e+00  -1.1201159074543492e-07 1.2921750422097000e-08 0.0000000000000000e+00  0.0000000000000000e+00 0.0000000000000000e+00 0.0000000000000000e+00  -1.9726349761735458e-08 2.4528068707647064e-09 0.0000000000000000e+00  -9.4639559166009859e-09 1.1788571283392725e-10 0.0000000000000000e+00  -1.3083417104622225e-08 1.6485350169796527e-09 0.0000000000000000e+00  -7.8581909309750336e-08 -1.1472697507752480e-08 0.0000000000000000e+00  -9.3834528384687151e-09 -3.2501931271954487e-10 0.0000000000000000e+00  -9.4095860562591689e-09 1.2119036051335294e-10 0.0000000000000000e+00  -3.0750139766128491e-08 8.7099557858284093e-10 0.0000000000000000e+00  -1.6541265955196643e-08 2.4687378796170149e-09 0.0000000000000000e+00  -7.8085391536232779e-08 -6.3298188332845356e-09 0.0000000000000000e+00  -2.7365839926115156e-08 3.1046083674687062e-09 0.0000000000000000e+00  </DataArray> 
</PointData> 
</Piece>
</UnstructuredGrid>
</VTKFile>