<?xml version="1.0"?>
<VTKFile type="UnstructuredGrid"  version="0.1"  >
<UnstructuredGrid>
<Piece  NumberOfPoints="104" NumberOfCells="169">
<Points>
<DataArray  type="Float64"  NumberOfComponents="3"  format="ascii">0.1643783325218296 0.1320455275536215 0  0.1492552100538899 0.1320415135830948 0  0.1603037058708973 0.1432581839427922 0  0.228090483983057 0.1360461642521307 0  0.2156274396954392 0.1428329882811742 0  0.2231096629876289 0.1473860403476538 0  0.1340109150974826 0.1326286508362426 0  0.1230381620938855 0.1450531231009962 0  0.1371388187715824 0.1487519394947238 0  0.1502170850938848 0.1478553695050668 0  0.1843109002236991 0.1108412192449581 0  0.1663792634974669 0.1129031590983526 0  0.1730791557496665 0.09449610930120438 0  0.1497148406801674 0.1059683048239758 0  0.1319376419904144 0.1078314072630599 0  0.1422873301607691 0.09099989767432708 0  0.1292063859387973 0.160179270973018 0  0.235428184091502 0 0  0.2269089833956681 0.04173965335049001 0  0.2054867233040618 0.02496467843107029 0  0.1877417105387872 0.1515259415822739 0  0.1807733240461124 0.153844448527136 0  0.1810237202008071 0.1443964565620037 0  0.1984955210867955 0.1136055788350874 0  0.1897964898761356 0.09526420071455169 0  0.2542757755299287 0.02753888901404131 0  0.2023158100364996 0.1500536585536553 0  0.194974551899914 0.1502531923497262 0  0.1988434545186226 0.1412267786066319 0  0.139904094447954 0.0475963399258769 0  0.1148334976584671 0.02974143409366008 0  0.1520649328173654 0.02654404467430412 0  0.2166911463437691 0.1528682099456123 0  0.2096071079204251 0.1509316448471593 0  0.157033859236083 0.1549203861564464 0  0.1666775543554036 0.1527311555964813 0  0.1709026911846327 0.1428229394764081 0  0.1355360062927427 0.1738833905690768 0  0.13855578359055 0.1617173140777549 0  0.1273239957535082 0 0  0.2166066364647865 0.1318674827965409 0  0.2211645858397942 0.1228171087145059 0  0.122631157988491 0.09257199523221718 0  0.1543497545781645 0.1644684805108295 0  0.1465332544464342 0.1576333074590302 0  0.1768496449561323 0.1335347700706724 0  0.1432528331866671 0.1403427880156989 0  0.2063021547212692 0.09746645431143124 0  0.1445088930113995 0.1682503620331025 0  0.145931504770643 0.1790663128181236 0  0.162910430003803 0.1664684656256651 0  0.1583987151779087 0.1722631454351573 0  0.1581391111780151 0.09342872668547121 0  0.1742197252835808 0.15715869474974 0  0.1682222986673531 0.1613971801805478 0  0.1417345422718611 0.1196357446143074 0  0.1800175691778405 0.1220029873035379 0  0.1900464160197788 0.1434391807715867 0  0.2340427519707383 0.12500661673201 0  0.1746666922495988 0.1499058539490714 0  0.2092567323014181 0.1231268265338988 0  0.2148660291046949 0.1110801690257468 0  0.117949309539449 0.1314289940198134 0  0.1358421380985344 0.07184101253224438 0  0.1134537715612197 0.07678361544475715 0  0.09377624077125973 0 0  0.1970804225914977 0.07638822249409431 0  0.1512336529604225 0.1723680822309486 0  0.1692118283604925 0.1236341708275373 0  0.1777108984146039 0.03960446592307849 0  0.1570548482231846 0.05573307794728176 0  0.1564186559410363 0.1212209553520046 0  0.2067838776803175 0.1442269954006475 0  0.1547844879126891 0.178656207771761 0  0.2077074758137319 0.1359897507413737 0  0.1990707649929309 0.1296245621647927 0  0.1595371636519827 0.07838695808624725 0  0.2234150974217223 0.1558215752574715 0  0.1222490905968041 0.0568943244623543 0  0.2571393426600714 0.09909224058133874 0  0.252515959816117 0.07648796931448625 0  0.2416741650815652 0.0950846504064212 0  0.1619806510917199 0.1601561579838679 0  0.2000506922905834 0.05138745584171936 0  0.1769147510702603 0.06290595158306629 0  0.1620856860351972 0 0  0.213756581476409 0.08311851351475982 0  0.2259637082614391 0.09968835807421736 0  0.1981052433264291 0 0  0.2312810177471911 0.08330382810563154 0  0.2178953059102855 0.06599367533480922 0  0.2280545270734199 0.114161215267224 0  0.2437828577465094 0.1110862473067074 0  0.2741016576309132 0 0  0.1874494447592934 0.1304389264391784 0  0.1261668873624441 0.1203748521618074 0  0.1851500288844805 0.1377443395869293 0  0.247794183473202 0.05155939024503531 0  0.179425619413292 0.01748466926548749 0  0.1185608756269049 0.1083965233746596 0  0.1795103306938107 0.08060563341732667 0  0.1927059842241056 0.1364147326068345 0  0.2356079172485811 0.06536850945193971 0  0.1897996484266387 0.1213827416278163 0  </DataArray>
</Points>
<Cells>
<DataArray  type="UInt32"  Name="connectivity"  format="ascii">0 1 2  3 4 5  6 7 8  9 1 2  10 11 12  13 14 15  16 7 8  17 18 19  20 21 22  10 23 24  17 18 25  26 27 28  29 30 31  32 33 4  34 35 2  0 36 2  16 37 38  39 30 31  3 40 41  42 14 15  34 43 44  0 36 45  6 8 46  47 23 24  48 37 38  3 4 40  48 49 37  9 1 46  9 8 44  9 34 2  50 51 43  11 12 52  53 54 35  48 43 44  13 14 55  10 11 56  13 11 52  8 44 38  36 35 2  20 22 57  3 58 41  21 22 59  36 22 45  9 34 44  60 23 61  6 7 62  42 63 64  27 28 57  65 39 30  66 47 24  48 43 67  11 56 68  48 49 67  6 1 55  69 31 70  29 31 70  0 1 71  26 28 72  27 20 57  32 4 5  47 23 61  33 4 72  73 49 67  60 74 75  16 8 38  10 12 24  51 43 67  60 74 40  6 1 46  76 63 15  13 11 71  42 63 15  74 28 75  77 32 5  76 63 70  29 30 78  79 80 81  53 35 59  50 43 82  66 83 84  39 85 31  54 35 82  66 47 86  47 87 86  88 17 19  69 83 19  74 4 40  51 73 67  36 35 59  89 80 81  66 83 90  47 61 87  60 75 23  91 92 87  17 93 25  94 45 56  36 22 59  9 8 46  6 55 95  13 55 71  1 55 71  22 45 96  91 92 58  18 25 97  0 45 68  21 53 59  29 63 70  69 19 98  69 83 84  76 15 52  42 14 99  63 64 78  76 12 100  33 26 72  74 28 72  34 43 82  28 75 101  45 56 68  74 4 72  34 35 82  18 90 102  75 23 103  94 75 103  14 55 95  13 15 52  76 84 100  85 88 98  18 83 90  0 71 68  69 84 70  92 87 81  76 84 70  76 12 52  89 90 86  66 90 86  18 97 102  94 45 96  89 87 86  12 24 100  89 80 102  18 83 19  66 24 100  94 75 101  66 84 100  48 44 38  89 90 102  69 31 98  54 50 82  29 63 78  60 61 41  11 71 68  10 23 103  91 61 87  94 56 103  14 99 95  80 97 102  91 58 41  22 57 96  60 40 41  28 57 101  85 31 98  10 56 103  91 61 41  6 62 95  88 19 98  79 92 81  57 96 101  89 87 81  94 96 101  </DataArray>
<DataArray  type="UInt32"  Name="offsets"  format="ascii">3 6 9 12 15 18 21 24 27 30 33 36 39 42 45 48 51 54 57 60 63 66 69 72 75 78 81 84 87 90 93 96 99 102 105 108 111 114 117 120 123 126 129 132 135 138 141 144 147 150 153 156 159 162 165 168 171 174 177 180 183 186 189 192 195 198 201 204 207 210 213 216 219 222 225 228 231 234 237 240 243 246 249 252 255 258 261 264 267 270 273 276 279 282 285 288 291 294 297 300 303 306 309 312 315 318 321 324 327 330 333 336 339 342 345 348 351 354 357 360 363 366 369 372 375 378 381 384 387 390 393 396 399 402 405 408 411 414 417 420 423 426 429 432 435 438 441 444 447 450 453 456 459 462 465 468 471 474 477 480 483 486 489 492 495 498 501 504 507 </DataArray>
<DataArray  type="UInt8"  Name="types"  format="ascii">5 5 5 5 5 5 5 5 5 5 5 5 5 5 5 5 5 5 5 5 5 5 5 5 5 5 5 5 5 5 5 5 5 5 5 5 5 5 5 5 5 5 5 5 5 5 5 5 5 5 5 5 5 5 5 5 5 5 5 5 5 5 5 5 5 5 5 5 5 5 5 5 5 5 5 5 5 5 5 5 5 5 5 5 5 5 5 5 5 5 5 5 5 5 5 5 5 5 5 5 5 5 5 5 5 5 5 5 5 5 5 5 5 5 5 5 5 5 5 5 5 5 5 5 5 5 5 5 5 5 5 5 5 5 5 5 5 5 5 5 5 5 5 5 5 5 5 5 5 5 5 5 5 5 5 5 5 5 5 5 5 5 5 5 5 5 5 5 5 </DataArray>
</Cells>
<PointData  Vectors="f_43-1"> 
<DataArray  type="Float64"  Name="f_43-1"  NumberOfComponents="3" format="ascii">1.5795331306658360e-07 3.2557431920279144e-06 0.0000000000000000e+00  1.2152708463789240e-07 2.7102408237953634e-06 0.0000000000000000e+00  9.3763231773573864e-08 2.0278529544097885e-06 0.0000000000000000e+00  9.2786473161117568e-07 1.4232033768878492e-05 0.0000000000000000e+00  3.6970302183560037e-07 5.8702060250675961e-06 0.0000000000000000e+00  4.1547833488091543e-07 6.0510601769343450e-06 0.0000000000000000e+00  9.0460671412235242e-08 2.2594765317975127e-06 0.0000000000000000e+00  4.7864510430328916e-08 1.6268390442287931e-06 0.0000000000000000e+00  5.4688582137238753e-08 1.5960734628473880e-06 0.0000000000000000e+00  6.7969692387307258e-08 1.6530832889305651e-06 0.0000000000000000e+00  3.8276900955253297e-07 7.5448077594139391e-06 0.0000000000000000e+00  2.5141090632612516e-07 5.1414359248639947e-06 0.0000000000000000e+00  3.3423097400484570e-07 6.9008686956914617e-06 0.0000000000000000e+00  1.9305050602436729e-07 4.1315521014650441e-06 0.0000000000000000e+00  1.3256562144462334e-07 3.0206159289395070e-06 0.0000000000000000e+00  1.8085826312827506e-07 3.9325678752452862e-06 0.0000000000000000e+00  2.1984294380606318e-08 1.1847245552802395e-06 0.0000000000000000e+00  0.0000000000000000e+00 0.0000000000000000e+00 0.0000000000000000e+00  4.9420807534427774e-07 1.2261970839434704e-05 0.0000000000000000e+00  2.2366784482608337e-07 5.3576904852755479e-06 0.0000000000000000e+00  0.0000000000000000e+00 0.0000000000000000e+00 0.0000000000000000e+00  0.0000000000000000e+00 0.0000000000000000e+00 0.0000000000000000e+00  9.7012050168760096e-08 1.8708883523552518e-06 0.0000000000000000e+00  5.2183010176573341e-07 9.9277014914176680e-06 0.0000000000000000e+00  4.7375056169010213e-07 9.6096167674444549e-06 0.0000000000000000e+00  4.3410838586537696e-07 1.2605986008863352e-05 0.0000000000000000e+00  0.0000000000000000e+00 0.0000000000000000e+00 0.0000000000000000e+00  0.0000000000000000e+00 0.0000000000000000e+00 0.0000000000000000e+00  1.9197787513591657e-07 3.3985109836023466e-06 0.0000000000000000e+00  1.3203385170324150e-07 2.9158619867378939e-06 0.0000000000000000e+00  5.5254055046299490e-08 1.2464984177549369e-06 0.0000000000000000e+00  9.9372391339614578e-08 2.2120593269170970e-06 0.0000000000000000e+00  0.0000000000000000e+00 0.0000000000000000e+00 0.0000000000000000e+00  0.0000000000000000e+00 0.0000000000000000e+00 0.0000000000000000e+00  4.3908884107027876e-08 1.0615630255826066e-06 0.0000000000000000e+00  4.4702390101057136e-08 9.6186535401706110e-07 0.0000000000000000e+00  1.0465582036163742e-07 2.1198257017450061e-06 0.0000000000000000e+00  -4.1357189893165833e-10 7.3721094744206450e-07 0.0000000000000000e+00  2.4819685487359162e-08 1.0517892093940039e-06 0.0000000000000000e+00  0.0000000000000000e+00 0.0000000000000000e+00 0.0000000000000000e+00  6.4882620904550010e-07 1.0826681460414451e-05 0.0000000000000000e+00  8.8357896453846904e-07 1.5263962729544938e-05 0.0000000000000000e+00  1.2133154560550897e-07 2.7828180158858856e-06 0.0000000000000000e+00  1.8006769979581824e-08 5.4681786266013015e-07 0.0000000000000000e+00  3.7231175409137041e-08 1.1123558533006594e-06 0.0000000000000000e+00  1.8751417047714004e-07 3.6728616494576300e-06 0.0000000000000000e+00  8.4749373449185598e-08 2.0697801584772852e-06 0.0000000000000000e+00  6.7413513979918884e-07 1.3439483180500115e-05 0.0000000000000000e+00  1.3540815620096523e-08 6.9747361682987534e-07 0.0000000000000000e+00  -1.1974386875807574e-09 3.4865695175456829e-07 0.0000000000000000e+00  0.0000000000000000e+00 0.0000000000000000e+00 0.0000000000000000e+00  0.0000000000000000e+00 0.0000000000000000e+00 0.0000000000000000e+00  2.4693844666855542e-07 5.2104576904519369e-06 0.0000000000000000e+00  0.0000000000000000e+00 0.0000000000000000e+00 0.0000000000000000e+00  0.0000000000000000e+00 0.0000000000000000e+00 0.0000000000000000e+00  1.3809303727285294e-07 3.0939405680631941e-06 0.0000000000000000e+00  2.8848198013596238e-07 5.6383962707835837e-06 0.0000000000000000e+00  1.1831640274884588e-07 2.1853878590057962e-06 0.0000000000000000e+00  1.2828508868789989e-06 2.1090463429133857e-05 0.0000000000000000e+00  5.1230329321705772e-08 1.0308480263098231e-06 0.0000000000000000e+00  6.1327582382479419e-07 1.0964696345592723e-05 0.0000000000000000e+00  8.0441249954757504e-07 1.5005602181369391e-05 0.0000000000000000e+00  6.6797860025455532e-08 1.9226329836644503e-06 0.0000000000000000e+00  1.5563984293567962e-07 3.4250996918175993e-06 0.0000000000000000e+00  1.0166849638952787e-07 2.3448234959140813e-06 0.0000000000000000e+00  0.0000000000000000e+00 0.0000000000000000e+00 0.0000000000000000e+00  5.1642037550948688e-07 1.1006657372882358e-05 0.0000000000000000e+00  6.3619456839039067e-09 3.3636050306500867e-07 0.0000000000000000e+00  2.1956671426993377e-07 4.4303713587981799e-06 0.0000000000000000e+00  2.2348791666435815e-07 5.0124972099510166e-06 0.0000000000000000e+00  2.0364944042217587e-07 4.4504771914996367e-06 0.0000000000000000e+00  1.7890473665167011e-07 3.7737550206058700e-06 0.0000000000000000e+00  1.8952342972843464e-07 3.1839288654229766e-06 0.0000000000000000e+00  0.0000000000000000e+00 0.0000000000000000e+00 0.0000000000000000e+00  3.9362592510675278e-07 6.7360968314928383e-06 0.0000000000000000e+00  3.8168652047621622e-07 6.9154056896583874e-06 0.0000000000000000e+00  2.5341609244121196e-07 5.4123046810444576e-06 0.0000000000000000e+00  0.0000000000000000e+00 0.0000000000000000e+00 0.0000000000000000e+00  1.0654056574261677e-07 2.3885184972339329e-06 0.0000000000000000e+00  1.7889525028339851e-06 3.7165008441164320e-05 0.0000000000000000e+00  1.2557676989044603e-06 2.9936300910202997e-05 0.0000000000000000e+00  1.3394079757427038e-06 2.7548149304014540e-05 0.0000000000000000e+00  2.0099738612568467e-08 4.8511904255567528e-07 0.0000000000000000e+00  4.0579115681605319e-07 9.2117834909875613e-06 0.0000000000000000e+00  3.1782729388099299e-07 6.9039032801872554e-06 0.0000000000000000e+00  0.0000000000000000e+00 0.0000000000000000e+00 0.0000000000000000e+00  7.3767241357533763e-07 1.5559312165923090e-05 0.0000000000000000e+00  1.0282905984636910e-06 2.0224915900162670e-05 0.0000000000000000e+00  0.0000000000000000e+00 0.0000000000000000e+00 0.0000000000000000e+00  1.0049222201836224e-06 2.1687319695952939e-05 0.0000000000000000e+00  6.6708559228232537e-07 1.5054715622374850e-05 0.0000000000000000e+00  1.1124104938087949e-06 2.0024793848783770e-05 0.0000000000000000e+00  1.5806627703331273e-06 2.8990428146315834e-05 0.0000000000000000e+00  0.0000000000000000e+00 0.0000000000000000e+00 0.0000000000000000e+00  2.6871156645842920e-07 5.0727354183541759e-06 0.0000000000000000e+00  9.9946743600468150e-08 2.4506876237214144e-06 0.0000000000000000e+00  1.7780103102464911e-07 3.3637210466469540e-06 0.0000000000000000e+00  7.8147367990291846e-07 2.0469586654568054e-05 0.0000000000000000e+00  1.0612661801689146e-07 2.4294350494946829e-06 0.0000000000000000e+00  1.0029515251734072e-07 2.4349841938034786e-06 0.0000000000000000e+00  3.7734688621224857e-07 7.9473456864778020e-06 0.0000000000000000e+00  2.3152641717273088e-07 4.2471464350261025e-06 0.0000000000000000e+00  8.5830375091480707e-07 2.0324707397563043e-05 0.0000000000000000e+00  3.7002655465769142e-07 7.0432423581693468e-06 0.0000000000000000e+00  </DataArray> 
</PointData> 
</Piece>
</UnstructuredGrid>
</VTKFile>