<?xml version="1.0"?>
<VTKFile type="UnstructuredGrid"  version="0.1"  >
<UnstructuredGrid>
<Piece  NumberOfPoints="104" NumberOfCells="169">
<Points>
<DataArray  type="Float64"  NumberOfComponents="3"  format="ascii">0.1643783325218296 0.1320455275536215 0  0.1492552100538899 0.1320415135830948 0  0.1603037058708973 0.1432581839427922 0  0.228090483983057 0.1360461642521307 0  0.2156274396954392 0.1428329882811742 0  0.2231096629876289 0.1473860403476538 0  0.1340109150974826 0.1326286508362426 0  0.1230381620938855 0.1450531231009962 0  0.1371388187715824 0.1487519394947238 0  0.1502170850938848 0.1478553695050668 0  0.1843109002236991 0.1108412192449581 0  0.1663792634974669 0.1129031590983526 0  0.1730791557496665 0.09449610930120438 0  0.1497148406801674 0.1059683048239758 0  0.1319376419904144 0.1078314072630599 0  0.1422873301607691 0.09099989767432708 0  0.1292063859387973 0.160179270973018 0  0.235428184091502 0 0  0.2269089833956681 0.04173965335049001 0  0.2054867233040618 0.02496467843107029 0  0.1877417105387872 0.1515259415822739 0  0.1807733240461124 0.153844448527136 0  0.1810237202008071 0.1443964565620037 0  0.1984955210867955 0.1136055788350874 0  0.1897964898761356 0.09526420071455169 0  0.2542757755299287 0.02753888901404131 0  0.2023158100364996 0.1500536585536553 0  0.194974551899914 0.1502531923497262 0  0.1988434545186226 0.1412267786066319 0  0.139904094447954 0.0475963399258769 0  0.1148334976584671 0.02974143409366008 0  0.1520649328173654 0.02654404467430412 0  0.2166911463437691 0.1528682099456123 0  0.2096071079204251 0.1509316448471593 0  0.157033859236083 0.1549203861564464 0  0.1666775543554036 0.1527311555964813 0  0.1709026911846327 0.1428229394764081 0  0.1355360062927427 0.1738833905690768 0  0.13855578359055 0.1617173140777549 0  0.1273239957535082 0 0  0.2166066364647865 0.1318674827965409 0  0.2211645858397942 0.1228171087145059 0  0.122631157988491 0.09257199523221718 0  0.1543497545781645 0.1644684805108295 0  0.1465332544464342 0.1576333074590302 0  0.1768496449561323 0.1335347700706724 0  0.1432528331866671 0.1403427880156989 0  0.2063021547212692 0.09746645431143124 0  0.1445088930113995 0.1682503620331025 0  0.145931504770643 0.1790663128181236 0  0.162910430003803 0.1664684656256651 0  0.1583987151779087 0.1722631454351573 0  0.1581391111780151 0.09342872668547121 0  0.1742197252835808 0.15715869474974 0  0.1682222986673531 0.1613971801805478 0  0.1417345422718611 0.1196357446143074 0  0.1800175691778405 0.1220029873035379 0  0.1900464160197788 0.1434391807715867 0  0.2340427519707383 0.12500661673201 0  0.1746666922495988 0.1499058539490714 0  0.2092567323014181 0.1231268265338988 0  0.2148660291046949 0.1110801690257468 0  0.117949309539449 0.1314289940198134 0  0.1358421380985344 0.07184101253224438 0  0.1134537715612197 0.07678361544475715 0  0.09377624077125973 0 0  0.1970804225914977 0.07638822249409431 0  0.1512336529604225 0.1723680822309486 0  0.1692118283604925 0.1236341708275373 0  0.1777108984146039 0.03960446592307849 0  0.1570548482231846 0.05573307794728176 0  0.1564186559410363 0.1212209553520046 0  0.2067838776803175 0.1442269954006475 0  0.1547844879126891 0.178656207771761 0  0.2077074758137319 0.1359897507413737 0  0.1990707649929309 0.1296245621647927 0  0.1595371636519827 0.07838695808624725 0  0.2234150974217223 0.1558215752574715 0  0.1222490905968041 0.0568943244623543 0  0.2571393426600714 0.09909224058133874 0  0.252515959816117 0.07648796931448625 0  0.2416741650815652 0.0950846504064212 0  0.1619806510917199 0.1601561579838679 0  0.2000506922905834 0.05138745584171936 0  0.1769147510702603 0.06290595158306629 0  0.1620856860351972 0 0  0.213756581476409 0.08311851351475982 0  0.2259637082614391 0.09968835807421736 0  0.1981052433264291 0 0  0.2312810177471911 0.08330382810563154 0  0.2178953059102855 0.06599367533480922 0  0.2280545270734199 0.114161215267224 0  0.2437828577465094 0.1110862473067074 0  0.2741016576309132 0 0  0.1874494447592934 0.1304389264391784 0  0.1261668873624441 0.1203748521618074 0  0.1851500288844805 0.1377443395869293 0  0.247794183473202 0.05155939024503531 0  0.179425619413292 0.01748466926548749 0  0.1185608756269049 0.1083965233746596 0  0.1795103306938107 0.08060563341732667 0  0.1927059842241056 0.1364147326068345 0  0.2356079172485811 0.06536850945193971 0  0.1897996484266387 0.1213827416278163 0  </DataArray>
</Points>
<Cells>
<DataArray  type="UInt32"  Name="connectivity"  format="ascii">0 1 2  3 4 5  6 7 8  9 1 2  10 11 12  13 14 15  16 7 8  17 18 19  20 21 22  10 23 24  17 18 25  26 27 28  29 30 31  32 33 4  34 35 2  0 36 2  16 37 38  39 30 31  3 40 41  42 14 15  34 43 44  0 36 45  6 8 46  47 23 24  48 37 38  3 4 40  48 49 37  9 1 46  9 8 44  9 34 2  50 51 43  11 12 52  53 54 35  48 43 44  13 14 55  10 11 56  13 11 52  8 44 38  36 35 2  20 22 57  3 58 41  21 22 59  36 22 45  9 34 44  60 23 61  6 7 62  42 63 64  27 28 57  65 39 30  66 47 24  48 43 67  11 56 68  48 49 67  6 1 55  69 31 70  29 31 70  0 1 71  26 28 72  27 20 57  32 4 5  47 23 61  33 4 72  73 49 67  60 74 75  16 8 38  10 12 24  51 43 67  60 74 40  6 1 46  76 63 15  13 11 71  42 63 15  74 28 75  77 32 5  76 63 70  29 30 78  79 80 81  53 35 59  50 43 82  66 83 84  39 85 31  54 35 82  66 47 86  47 87 86  88 17 19  69 83 19  74 4 40  51 73 67  36 35 59  89 80 81  66 83 90  47 61 87  60 75 23  91 92 87  17 93 25  94 45 56  36 22 59  9 8 46  6 55 95  13 55 71  1 55 71  22 45 96  91 92 58  18 25 97  0 45 68  21 53 59  29 63 70  69 19 98  69 83 84  76 15 52  42 14 99  63 64 78  76 12 100  33 26 72  74 28 72  34 43 82  28 75 101  45 56 68  74 4 72  34 35 82  18 90 102  75 23 103  94 75 103  14 55 95  13 15 52  76 84 100  85 88 98  18 83 90  0 71 68  69 84 70  92 87 81  76 84 70  76 12 52  89 90 86  66 90 86  18 97 102  94 45 96  89 87 86  12 24 100  89 80 102  18 83 19  66 24 100  94 75 101  66 84 100  48 44 38  89 90 102  69 31 98  54 50 82  29 63 78  60 61 41  11 71 68  10 23 103  91 61 87  94 56 103  14 99 95  80 97 102  91 58 41  22 57 96  60 40 41  28 57 101  85 31 98  10 56 103  91 61 41  6 62 95  88 19 98  79 92 81  57 96 101  89 87 81  94 96 101  </DataArray>
<DataArray  type="UInt32"  Name="offsets"  format="ascii">3 6 9 12 15 18 21 24 27 30 33 36 39 42 45 48 51 54 57 60 63 66 69 72 75 78 81 84 87 90 93 96 99 102 105 108 111 114 117 120 123 126 129 132 135 138 141 144 147 150 153 156 159 162 165 168 171 174 177 180 183 186 189 192 195 198 201 204 207 210 213 216 219 222 225 228 231 234 237 240 243 246 249 252 255 258 261 264 267 270 273 276 279 282 285 288 291 294 297 300 303 306 309 312 315 318 321 324 327 330 333 336 339 342 345 348 351 354 357 360 363 366 369 372 375 378 381 384 387 390 393 396 399 402 405 408 411 414 417 420 423 426 429 432 435 438 441 444 447 450 453 456 459 462 465 468 471 474 477 480 483 486 489 492 495 498 501 504 507 </DataArray>
<DataArray  type="UInt8"  Name="types"  format="ascii">5 5 5 5 5 5 5 5 5 5 5 5 5 5 5 5 5 5 5 5 5 5 5 5 5 5 5 5 5 5 5 5 5 5 5 5 5 5 5 5 5 5 5 5 5 5 5 5 5 5 5 5 5 5 5 5 5 5 5 5 5 5 5 5 5 5 5 5 5 5 5 5 5 5 5 5 5 5 5 5 5 5 5 5 5 5 5 5 5 5 5 5 5 5 5 5 5 5 5 5 5 5 5 5 5 5 5 5 5 5 5 5 5 5 5 5 5 5 5 5 5 5 5 5 5 5 5 5 5 5 5 5 5 5 5 5 5 5 5 5 5 5 5 5 5 5 5 5 5 5 5 5 5 5 5 5 5 5 5 5 5 5 5 5 5 5 5 5 5 </DataArray>
</Cells>
<PointData  Vectors="f_43-1"> 
<DataArray  type="Float64"  Name="f_43-1"  NumberOfComponents="3" format="ascii">3.2241990979520463e-08 -5.4271870191373815e-07 0.0000000000000000e+00  2.8399770407183103e-08 -4.5498266296470598e-07 0.0000000000000000e+00  2.0995935969894306e-08 -3.3894511550995864e-07 0.0000000000000000e+00  1.3465627282408009e-07 -2.2093743728076054e-06 0.0000000000000000e+00  5.5440519423044579e-08 -9.2139773149056179e-07 0.0000000000000000e+00  5.7368736260944703e-08 -9.2334814889439868e-07 0.0000000000000000e+00  2.5657433246579995e-08 -3.8192346745492138e-07 0.0000000000000000e+00  2.1960964575552051e-08 -2.7800664577471766e-07 0.0000000000000000e+00  2.0086523508170012e-08 -2.7106156115646990e-07 0.0000000000000000e+00  1.8655948609932443e-08 -2.7832425106180009e-07 0.0000000000000000e+00  7.1155417553967219e-08 -1.2546057670974203e-06 0.0000000000000000e+00  4.9552127201998899e-08 -8.5940584617235152e-07 0.0000000000000000e+00  6.5246571314754486e-08 -1.1593758302252818e-06 0.0000000000000000e+00  4.0834914355951607e-08 -6.9474226010644428e-07 0.0000000000000000e+00  3.1476580675471774e-08 -5.0995285550294812e-07 0.0000000000000000e+00  3.8775100987656649e-08 -6.6385804679276341e-07 0.0000000000000000e+00  1.8646347572921298e-08 -2.0445535125635268e-07 0.0000000000000000e+00  0.0000000000000000e+00 0.0000000000000000e+00 0.0000000000000000e+00  1.1074269609836063e-07 -2.1493954270013203e-06 0.0000000000000000e+00  4.8759024484778655e-08 -9.3258678630188159e-07 0.0000000000000000e+00  0.0000000000000000e+00 0.0000000000000000e+00 0.0000000000000000e+00  0.0000000000000000e+00 0.0000000000000000e+00 0.0000000000000000e+00  1.8026869281545104e-08 -3.0848229482203947e-07 0.0000000000000000e+00  9.3048869850496375e-08 -1.6382437263921736e-06 0.0000000000000000e+00  8.9827714017165623e-08 -1.6104526646468582e-06 0.0000000000000000e+00  1.1128966055350246e-07 -2.2748491949151562e-06 0.0000000000000000e+00  0.0000000000000000e+00 0.0000000000000000e+00 0.0000000000000000e+00  0.0000000000000000e+00 0.0000000000000000e+00 0.0000000000000000e+00  3.2071988631261561e-08 -5.5018835233657419e-07 0.0000000000000000e+00  2.8015302194694527e-08 -4.9597057993609221e-07 0.0000000000000000e+00  1.2321707165797592e-08 -2.1203937925017378e-07 0.0000000000000000e+00  2.0866403568610841e-08 -3.7789862755697108e-07 0.0000000000000000e+00  0.0000000000000000e+00 0.0000000000000000e+00 0.0000000000000000e+00  0.0000000000000000e+00 0.0000000000000000e+00 0.0000000000000000e+00  1.1987204556109730e-08 -1.7849841432728308e-07 0.0000000000000000e+00  9.9867454639461752e-09 -1.6050713725894476e-07 0.0000000000000000e+00  2.0964598288669646e-08 -3.5204172706364424e-07 0.0000000000000000e+00  1.4461679898256156e-08 -1.2954125337624401e-07 0.0000000000000000e+00  1.5517374332834790e-08 -1.8048845734207691e-07 0.0000000000000000e+00  0.0000000000000000e+00 0.0000000000000000e+00 0.0000000000000000e+00  1.0195831704623310e-07 -1.7248429143689629e-06 0.0000000000000000e+00  1.4335302801681601e-07 -2.4558358129311731e-06 0.0000000000000000e+00  2.8829942844061538e-08 -4.7099501854633811e-07 0.0000000000000000e+00  7.0766809500337402e-09 -9.2830624808517147e-08 0.0000000000000000e+00  1.4239458108564130e-08 -1.8885396542987090e-07 0.0000000000000000e+00  3.5364513260884129e-08 -6.0792071205064886e-07 0.0000000000000000e+00  2.3291805546106194e-08 -3.4898327634685297e-07 0.0000000000000000e+00  1.2499076396440275e-07 -2.2443980872418101e-06 0.0000000000000000e+00  1.0890698727279415e-08 -1.2013747672227311e-07 0.0000000000000000e+00  7.0464823065367300e-09 -6.1410319389934593e-08 0.0000000000000000e+00  0.0000000000000000e+00 0.0000000000000000e+00 0.0000000000000000e+00  0.0000000000000000e+00 0.0000000000000000e+00 0.0000000000000000e+00  5.0105479657495424e-08 -8.7737624795604945e-07 0.0000000000000000e+00  0.0000000000000000e+00 0.0000000000000000e+00 0.0000000000000000e+00  0.0000000000000000e+00 0.0000000000000000e+00 0.0000000000000000e+00  3.2150385342883126e-08 -5.2073448402152395e-07 0.0000000000000000e+00  5.3646039114791584e-08 -9.3452428933600423e-07 0.0000000000000000e+00  2.0751920770817558e-08 -3.5736283434476081e-07 0.0000000000000000e+00  1.9881955823235203e-07 -3.3441415421066033e-06 0.0000000000000000e+00  1.0195979035166972e-08 -1.7092957275239726e-07 0.0000000000000000e+00  1.0290314023564534e-07 -1.7808271754723129e-06 0.0000000000000000e+00  1.4016683711452333e-07 -2.4647265348186982e-06 0.0000000000000000e+00  2.3773167667569421e-08 -3.2717385190433661e-07 0.0000000000000000e+00  3.3559959128505295e-08 -5.8032081016651458e-07 0.0000000000000000e+00  2.4194883422291100e-08 -3.9765521420227563e-07 0.0000000000000000e+00  0.0000000000000000e+00 0.0000000000000000e+00 0.0000000000000000e+00  1.0190054336715563e-07 -1.8670413109730549e-06 0.0000000000000000e+00  5.2904602659630647e-09 -5.7948643087455312e-08 0.0000000000000000e+00  4.2893732639140285e-08 -7.3774120819447562e-07 0.0000000000000000e+00  4.6452602008419426e-08 -8.5954346531926790e-07 0.0000000000000000e+00  4.2075667018082594e-08 -7.5707322361371696e-07 0.0000000000000000e+00  3.7529140641572403e-08 -6.3187727051404954e-07 0.0000000000000000e+00  3.0026991315106906e-08 -5.0817712242502343e-07 0.0000000000000000e+00  0.0000000000000000e+00 0.0000000000000000e+00 0.0000000000000000e+00  6.3441757706967061e-08 -1.0808438430272518e-06 0.0000000000000000e+00  6.5107794672144344e-08 -1.1266743877988898e-06 0.0000000000000000e+00  5.1502136126070508e-08 -9.1526313996399015e-07 0.0000000000000000e+00  0.0000000000000000e+00 0.0000000000000000e+00 0.0000000000000000e+00  2.3679110452653552e-08 -4.0553290653477633e-07 0.0000000000000000e+00  3.4382288765705686e-07 -6.2551546033256135e-06 0.0000000000000000e+00  2.7186324175076819e-07 -5.1975685824345759e-06 0.0000000000000000e+00  2.5456664866490699e-07 -4.6315781577608652e-06 0.0000000000000000e+00  5.4836045253549992e-09 -8.1525826976774005e-08 0.0000000000000000e+00  8.4533396625849206e-08 -1.5850062410535985e-06 0.0000000000000000e+00  6.4359592360389931e-08 -1.1750725787061437e-06 0.0000000000000000e+00  0.0000000000000000e+00 0.0000000000000000e+00 0.0000000000000000e+00  1.4359072998857657e-07 -2.6335563732978470e-06 0.0000000000000000e+00  1.8775945795631322e-07 -3.3661351528302362e-06 0.0000000000000000e+00  0.0000000000000000e+00 0.0000000000000000e+00 0.0000000000000000e+00  1.9926888677747107e-07 -3.6888722432826525e-06 0.0000000000000000e+00  1.3775383067860759e-07 -2.5871246355784653e-06 0.0000000000000000e+00  1.8741555915655745e-07 -3.2578120719135672e-06 0.0000000000000000e+00  2.7118025632910475e-07 -4.7361698446331181e-06 0.0000000000000000e+00  0.0000000000000000e+00 0.0000000000000000e+00 0.0000000000000000e+00  4.8081155608120428e-08 -8.3424506712926230e-07 0.0000000000000000e+00  2.7236785048717889e-08 -4.1463623283883584e-07 0.0000000000000000e+00  3.2056019030901240e-08 -5.5302085701546078e-07 0.0000000000000000e+00  1.8341456669335393e-07 -3.6239316676426942e-06 0.0000000000000000e+00  2.2423145268314698e-08 -4.1855230558402286e-07 0.0000000000000000e+00  2.6659735798682500e-08 -4.1246101047131029e-07 0.0000000000000000e+00  7.4366389592861786e-08 -1.3429834093879194e-06 0.0000000000000000e+00  4.0166559250053602e-08 -6.9372307058375749e-07 0.0000000000000000e+00  1.8460149763988985e-07 -3.5274395783181444e-06 0.0000000000000000e+00  6.6434328222924523e-08 -1.1614561128656012e-06 0.0000000000000000e+00  </DataArray> 
</PointData> 
</Piece>
</UnstructuredGrid>
</VTKFile>