<?xml version="1.0"?>
<VTKFile type="UnstructuredGrid"  version="0.1"  >
<UnstructuredGrid>
<Piece  NumberOfPoints="104" NumberOfCells="167">
<Points>
<DataArray  type="Float64"  NumberOfComponents="3"  format="ascii">0.7179098792074922 0.09515556231434774 0  0.6930564374308674 0.1341308449452096 0  0.6808979566904864 0.09264351137968369 0  0.883612004374276 0.2044999257790265 0  0.941405262964606 0.2275541950732263 0  0.8724873572796065 0.2505182730032114 0  0.6580228992389956 0.1177787934340178 0  1.122434100544716 0.41 0  1.068894913355815 0.339699543595371 0  1.154144739340952 0.3428674566149401 0  0.9084404882614506 0.2892191224003848 0  1.215451113850732 0.2103314603357224 0  1.249863529963017 0.2672258935273379 0  1.176331347569866 0.2754551993599315 0  0.7101078070491313 0.04593780015520291 0  0.7273492824638629 0.1308306999820452 0  0.6699818017210338 0.05718888729500279 0  0.9882218810956305 0.41 0  0.9246101326886647 0.41 0  0.9513232956593279 0.344238796639219 0  0.8632198139519631 0.41 0  0.882513772872486 0.3520608410452225 0  0.8202234869765325 0.364591028094237 0  0.7991030424147842 0.1996369747921017 0  0.755404159289092 0.1590232243285952 0  0.7509674852354215 0.2077605643765068 0  0.8502354418587501 0.1560244879407868 0  0.9215858179635137 0.1737964996919513 0  0.9080221499231149 0.1220333110997775 0  1.122434100542598 0 0  1.070453094842314 0.06960241275844714 0  1.154904552424504 0.06969164993518225 0  1.017753695734191 0.3624508760213758 0  0.8363367911675036 0.3257327955680793 0  1.05413544556068 0.41 0  0.6244559818022579 0.1024805481876779 0  0.6321311710823254 0.06153785161297727 0  0.595034110037278 0.08371649311769892 0  1.002160515162412 0.1007971030886586 0  1.051646085559005 0.1501053523947661 0  0.7970763259525799 0.1414049767778835 0  0.8757744372027163 0.0680967899541615 0  0.9457932773848412 0.0667989600995588 0  1.054135445558498 0 0  0.7467958595648856 0 0  0.8039733463919316 0 0  0.7693776708684824 0.05639711714283061 0  0.9246101326867038 0 0  0.9882218810934433 0 0  1.005346589798493 0.3067901807747939 0  1.048577150438126 0.2582185237349715 0  1.112767688411364 0.1251261100534626 0  1.171970583870903 0.1546087622866204 0  1.342519516048286 0.41 0  1.266535089881505 0.41 0  1.274599158297837 0.3398495556128484 0  0.8625643833134949 0.2947679371372982 0  1.21281999103096 0.3139909211204517 0  1.019068245937061 0.0469337202247656 0  0.9665635209117881 0.1540989494284837 0  1.008472627814504 0.204999999999892 0  1.111528583326901 0.2818863422907276 0  0.8280582783289157 0.04600943632764167 0  0.7467958595662458 0.41 0  0.6916151138480078 0.41 0  0.7140255670996881 0.3646166311524474 0  0.763519512252238 0.1106765968361548 0  1.146963556870385 0.2220662070926035 0  0.7666101362390253 0.3578469139891653 0  0.7236859362722395 0.2517828338101294 0  0.7667165827043843 0.2524551100397078 0  1.084668006184735 0.2128250251286081 0  0.814691562998009 0.09619193426127341 0  0.7613343746328384 0.3026779105476945 0  0.8174223541212756 0.2698453306575623 0  0.7176052736190859 0.2162836958912044 0  0.7959218455617475 0.3268864684847159 0  1.193204177143353 0.41 0  1.193204177141305 0 0  0.5932743238853959 0.04945528001359441 0  0.6649882407551387 0.02261378243973851 0  0.8039733463934788 0.41 0  0.5869673343216626 0 0  0.619281841121555 0.02915265998465505 0  1.118750868833027 0.1743068070907049 0  0.9108122465318981 0.04113381345596949 0  0.953518183350995 0.1113177413147439 0  0.7293997039068749 0.1878315768275717 0  0.860027688655414 0.1096039208573359 0  0.8632198139502143 0 0  0.7294932489647475 0.2840789881590486 0  1.221368790720609 0.3632125781021275 0  0.6641520523959832 0.1503720468916702 0  0.9607107278835494 0.2834185756442621 0  0.6527022231295108 0.08569477788831682 0  0.6916151138468254 0 0  0.8438935925208596 0.2159584135336446 0  0.7014764931779993 0.1925000000000107 0  0.6711932754123612 0.1788117674793375 0  0.6915000583673684 0.1646401469634124 0  0.7279457694224267 0.3237962213587685 0  0.9950305598379717 0.2553450661633512 0  0.6383613676634521 0 0  0.7206274800156242 0.161583396443773 0  </DataArray>
</Points>
<Cells>
<DataArray  type="UInt32"  Name="connectivity"  format="ascii">0 1 2  3 4 5  1 6 2  7 8 9  10 4 5  11 12 13  0 14 2  0 1 15  16 14 2  17 18 19  20 21 22  23 24 25  3 26 27  28 26 27  29 30 31  17 19 32  33 21 22  7 34 8  35 36 37  38 30 39  23 24 40  10 19 21  28 41 42  43 29 30  44 45 46  47 48 42  49 8 50  51 31 52  51 30 39  53 54 55  10 21 56  0 46 14  57 12 13  48 42 58  38 59 39  60 59 39  61 8 50  45 46 62  60 4 59  63 64 65  0 46 66  11 67 13  63 65 68  61 8 9  23 26 40  49 19 32  69 25 70  60 71 50  72 46 62  73 74 70  69 25 75  60 71 39  51 30 31  23 74 70  4 59 27  73 74 76  61 71 50  38 42 58  77 7 9  29 78 31  79 36 37  16 14 80  44 46 14  61 71 67  81 63 68  33 74 76  72 46 66  82 79 83  72 41 62  23 25 70  71 39 84  41 42 85  18 19 21  51 39 84  28 42 86  24 25 87  72 41 88  47 42 85  89 41 62  69 70 90  72 26 40  57 55 12  77 9 91  20 81 22  1 6 92  10 19 93  33 21 56  35 6 94  95 44 14  23 74 96  23 26 96  97 98 99  36 83 80  95 14 80  89 41 85  49 19 93  28 26 88  33 74 56  18 20 21  3 26 96  72 26 88  11 67 52  16 36 80  24 66 15  28 41 88  0 66 15  57 9 91  3 4 27  45 89 62  73 70 90  81 68 22  34 8 32  38 42 86  49 8 32  65 68 100  98 92 99  38 30 58  43 30 58  10 4 93  67 52 84  89 47 85  73 68 100  60 4 101  6 2 94  34 17 32  61 9 13  48 43 58  28 59 27  38 59 86  82 102 83  28 59 86  57 9 13  97 103 99  102 95 80  54 77 91  24 66 40  49 50 101  72 66 40  35 36 94  1 92 99  60 50 101  73 68 76  1 103 15  1 103 99  24 103 15  97 75 87  24 103 87  54 55 91  74 5 96  71 67 84  97 103 87  4 93 101  79 36 83  57 55 91  61 67 13  16 36 94  74 5 56  25 75 87  51 52 84  16 2 94  102 83 80  49 93 101  10 5 56  68 22 76  3 5 96  33 22 76  73 100 90  </DataArray>
<DataArray  type="UInt32"  Name="offsets"  format="ascii">3 6 9 12 15 18 21 24 27 30 33 36 39 42 45 48 51 54 57 60 63 66 69 72 75 78 81 84 87 90 93 96 99 102 105 108 111 114 117 120 123 126 129 132 135 138 141 144 147 150 153 156 159 162 165 168 171 174 177 180 183 186 189 192 195 198 201 204 207 210 213 216 219 222 225 228 231 234 237 240 243 246 249 252 255 258 261 264 267 270 273 276 279 282 285 288 291 294 297 300 303 306 309 312 315 318 321 324 327 330 333 336 339 342 345 348 351 354 357 360 363 366 369 372 375 378 381 384 387 390 393 396 399 402 405 408 411 414 417 420 423 426 429 432 435 438 441 444 447 450 453 456 459 462 465 468 471 474 477 480 483 486 489 492 495 498 501 </DataArray>
<DataArray  type="UInt8"  Name="types"  format="ascii">5 5 5 5 5 5 5 5 5 5 5 5 5 5 5 5 5 5 5 5 5 5 5 5 5 5 5 5 5 5 5 5 5 5 5 5 5 5 5 5 5 5 5 5 5 5 5 5 5 5 5 5 5 5 5 5 5 5 5 5 5 5 5 5 5 5 5 5 5 5 5 5 5 5 5 5 5 5 5 5 5 5 5 5 5 5 5 5 5 5 5 5 5 5 5 5 5 5 5 5 5 5 5 5 5 5 5 5 5 5 5 5 5 5 5 5 5 5 5 5 5 5 5 5 5 5 5 5 5 5 5 5 5 5 5 5 5 5 5 5 5 5 5 5 5 5 5 5 5 5 5 5 5 5 5 5 5 5 5 5 5 5 5 5 5 5 5 </DataArray>
</Cells>
<PointData  Vectors="f_43-1"> 
<DataArray  type="Float64"  Name="f_43-1"  NumberOfComponents="3" format="ascii">-4.4584022334746577e-07 -2.7536984541548601e-05 0.0000000000000000e+00  -7.0026935585260494e-07 -4.4917429304051161e-05 0.0000000000000000e+00  -6.7012585115084229e-07 -3.4523863605870831e-05 0.0000000000000000e+00  -6.6952300519043161e-08 -1.1602693995276223e-05 0.0000000000000000e+00  -4.4095714323694529e-08 -7.2067160643569141e-06 0.0000000000000000e+00  -4.1375816267341909e-08 -1.1861336810075312e-05 0.0000000000000000e+00  -1.0626476251533806e-06 -5.1023821097421334e-05 0.0000000000000000e+00  0.0000000000000000e+00 0.0000000000000000e+00 0.0000000000000000e+00  -1.0693050230987712e-08 -1.3608989670201957e-06 0.0000000000000000e+00  -6.6459809464451948e-09 -6.6404809551077473e-07 0.0000000000000000e+00  -2.5438826707611074e-08 -7.5535748434382526e-06 0.0000000000000000e+00  -9.7850966188820227e-09 -8.2939596202254147e-07 0.0000000000000000e+00  -6.9239604000286149e-09 -5.6135753217850196e-07 0.0000000000000000e+00  -1.0438406098857751e-08 -9.7132468298769683e-07 0.0000000000000000e+00  -2.6332728558744240e-07 -1.4332176121006177e-05 0.0000000000000000e+00  -4.4022218483490829e-07 -3.3700544438572993e-05 0.0000000000000000e+00  -4.7510161674214041e-07 -2.2610917660668047e-05 0.0000000000000000e+00  0.0000000000000000e+00 0.0000000000000000e+00 0.0000000000000000e+00  0.0000000000000000e+00 0.0000000000000000e+00 0.0000000000000000e+00  -1.2894801877192527e-08 -3.2440437348760119e-06 0.0000000000000000e+00  0.0000000000000000e+00 0.0000000000000000e+00 0.0000000000000000e+00  -2.8625683470949701e-09 -4.9386666282098019e-06 0.0000000000000000e+00  2.5313655851976893e-08 -6.3040261049404945e-06 0.0000000000000000e+00  -1.1258102260712356e-07 -2.2854980460762260e-05 0.0000000000000000e+00  -2.7568826600182161e-07 -3.0517269420472947e-05 0.0000000000000000e+00  -1.2089483863689140e-07 -3.3911609399163342e-05 0.0000000000000000e+00  -1.0935041908413563e-07 -1.4084093696117677e-05 0.0000000000000000e+00  -6.1359281272430175e-08 -8.3333586235749550e-06 0.0000000000000000e+00  -6.7615589239746183e-08 -7.6820749885974462e-06 0.0000000000000000e+00  0.0000000000000000e+00 0.0000000000000000e+00 0.0000000000000000e+00  -1.3608684025138500e-08 -1.3356634331685360e-06 0.0000000000000000e+00  -7.6921233627385408e-09 -6.8386855761561614e-07 0.0000000000000000e+00  -8.7933664156572856e-09 -1.4166136339834327e-06 0.0000000000000000e+00  1.5560817496644333e-08 -9.9347993890747121e-06 0.0000000000000000e+00  0.0000000000000000e+00 0.0000000000000000e+00 0.0000000000000000e+00  -1.2798152562377605e-06 -5.2278395669001764e-05 0.0000000000000000e+00  -6.7376789179820722e-07 -2.9030824520476476e-05 0.0000000000000000e+00  -1.1143534252233571e-06 -4.5159109304179171e-05 0.0000000000000000e+00  -2.9590141220599253e-08 -3.1525749526789557e-06 0.0000000000000000e+00  -2.6000191244532234e-08 -2.7874247191231143e-06 0.0000000000000000e+00  -1.8942731983563452e-07 -2.0418422896064704e-05 0.0000000000000000e+00  -6.3871439021539619e-08 -6.1243897857321887e-06 0.0000000000000000e+00  -3.3671086212048821e-08 -3.4648281932362201e-06 0.0000000000000000e+00  0.0000000000000000e+00 0.0000000000000000e+00 0.0000000000000000e+00  0.0000000000000000e+00 0.0000000000000000e+00 0.0000000000000000e+00  0.0000000000000000e+00 0.0000000000000000e+00 0.0000000000000000e+00  -1.6733948768258889e-07 -1.1609070634196642e-05 0.0000000000000000e+00  0.0000000000000000e+00 0.0000000000000000e+00 0.0000000000000000e+00  0.0000000000000000e+00 0.0000000000000000e+00 0.0000000000000000e+00  -1.9713101268352401e-08 -3.1218020960474219e-06 0.0000000000000000e+00  -2.2989588290026163e-08 -2.8663672668684085e-06 0.0000000000000000e+00  -1.5984651409118977e-08 -1.5373111087494413e-06 0.0000000000000000e+00  -1.2173516133920104e-08 -1.0864481532463495e-06 0.0000000000000000e+00  0.0000000000000000e+00 0.0000000000000000e+00 0.0000000000000000e+00  0.0000000000000000e+00 0.0000000000000000e+00 0.0000000000000000e+00  -3.3834237117708842e-09 -2.6540536950768580e-07 0.0000000000000000e+00  -1.2312735390294443e-08 -1.0470087130487136e-05 0.0000000000000000e+00  -6.4956150271642627e-09 -5.6854293883911705e-07 0.0000000000000000e+00  -1.3805384156694011e-08 -1.3908133776480833e-06 0.0000000000000000e+00  -4.5930935962000999e-08 -5.5454967761622448e-06 0.0000000000000000e+00  -3.4030248135674185e-08 -4.2985430867516971e-06 0.0000000000000000e+00  -1.4599691085996669e-08 -1.5754641924086910e-06 0.0000000000000000e+00  -7.3965034853883570e-08 -6.1286961978905975e-06 0.0000000000000000e+00  0.0000000000000000e+00 0.0000000000000000e+00 0.0000000000000000e+00  0.0000000000000000e+00 0.0000000000000000e+00 0.0000000000000000e+00  2.2834591299866267e-07 -1.3286137664325973e-05 0.0000000000000000e+00  -2.7733536413536808e-07 -2.2305521058380227e-05 0.0000000000000000e+00  -1.4738960754880790e-08 -1.4184426447318902e-06 0.0000000000000000e+00  9.8637702448363646e-08 -1.0688613790946605e-05 0.0000000000000000e+00  1.5218557248204618e-07 -3.8783852924937544e-05 0.0000000000000000e+00  3.0449453277180884e-08 -2.7375534637059469e-05 0.0000000000000000e+00  -2.1651364481052811e-08 -2.3426886415268810e-06 0.0000000000000000e+00  -1.4854661680048300e-07 -1.3360340859488735e-05 0.0000000000000000e+00  1.3812323168133273e-07 -2.1637722379360583e-05 0.0000000000000000e+00  -3.0352060181062063e-09 -1.7082880629275265e-05 0.0000000000000000e+00  -7.6521328340709341e-08 -4.4662242990823331e-05 0.0000000000000000e+00  6.3586041971237108e-08 -1.3352846322122880e-05 0.0000000000000000e+00  0.0000000000000000e+00 0.0000000000000000e+00 0.0000000000000000e+00  0.0000000000000000e+00 0.0000000000000000e+00 0.0000000000000000e+00  -5.9831380658216284e-07 -2.5594577963793868e-05 0.0000000000000000e+00  -1.9546463510454479e-07 -9.1041086724609917e-06 0.0000000000000000e+00  0.0000000000000000e+00 0.0000000000000000e+00 0.0000000000000000e+00  0.0000000000000000e+00 0.0000000000000000e+00 0.0000000000000000e+00  -3.2542538357909224e-07 -1.4052743252175037e-05 0.0000000000000000e+00  -1.7710112297585240e-08 -1.7417642996159196e-06 0.0000000000000000e+00  -2.9556341915484581e-08 -2.8787696592424204e-06 0.0000000000000000e+00  -4.5210570094523406e-08 -5.0087287766491798e-06 0.0000000000000000e+00  -2.5458934920519768e-07 -4.0344524079987827e-05 0.0000000000000000e+00  -9.9522631366218886e-08 -1.0389092844900171e-05 0.0000000000000000e+00  0.0000000000000000e+00 0.0000000000000000e+00 0.0000000000000000e+00  2.4674082012903267e-07 -3.1372606927689134e-05 0.0000000000000000e+00  -3.2022491974161623e-09 -2.7772204426628919e-07 0.0000000000000000e+00  -1.0788302702739828e-06 -6.2291362803873279e-05 0.0000000000000000e+00  -2.7479613495556597e-08 -5.1614580492483672e-06 0.0000000000000000e+00  -8.2797084307560866e-07 -3.7558235586369933e-05 0.0000000000000000e+00  0.0000000000000000e+00 0.0000000000000000e+00 0.0000000000000000e+00  -7.0861631937113354e-08 -1.5859092550478249e-05 0.0000000000000000e+00  -3.1942789649987992e-07 -5.1640017480646068e-05 0.0000000000000000e+00  -7.3471446767646984e-07 -6.6434517040073768e-05 0.0000000000000000e+00  -6.2667278398625438e-07 -5.2951172428625369e-05 0.0000000000000000e+00  2.7672877268641084e-07 -2.2648816031067274e-05 0.0000000000000000e+00  -2.9996347497695908e-08 -4.4228999969437548e-06 0.0000000000000000e+00  0.0000000000000000e+00 0.0000000000000000e+00 0.0000000000000000e+00  -4.1870695924227975e-07 -4.0962664956337997e-05 0.0000000000000000e+00  </DataArray> 
</PointData> 
</Piece>
</UnstructuredGrid>
</VTKFile>