<?xml version="1.0"?>
<VTKFile type="UnstructuredGrid"  version="0.1"  >
<UnstructuredGrid>
<Piece  NumberOfPoints="104" NumberOfCells="167">
<Points>
<DataArray  type="Float64"  NumberOfComponents="3"  format="ascii">0.7179098792074922 0.09515556231434774 0  0.6930564374308674 0.1341308449452096 0  0.6808979566904864 0.09264351137968369 0  0.883612004374276 0.2044999257790265 0  0.941405262964606 0.2275541950732263 0  0.8724873572796065 0.2505182730032114 0  0.6580228992389956 0.1177787934340178 0  1.122434100544716 0.41 0  1.068894913355815 0.339699543595371 0  1.154144739340952 0.3428674566149401 0  0.9084404882614506 0.2892191224003848 0  1.215451113850732 0.2103314603357224 0  1.249863529963017 0.2672258935273379 0  1.176331347569866 0.2754551993599315 0  0.7101078070491313 0.04593780015520291 0  0.7273492824638629 0.1308306999820452 0  0.6699818017210338 0.05718888729500279 0  0.9882218810956305 0.41 0  0.9246101326886647 0.41 0  0.9513232956593279 0.344238796639219 0  0.8632198139519631 0.41 0  0.882513772872486 0.3520608410452225 0  0.8202234869765325 0.364591028094237 0  0.7991030424147842 0.1996369747921017 0  0.755404159289092 0.1590232243285952 0  0.7509674852354215 0.2077605643765068 0  0.8502354418587501 0.1560244879407868 0  0.9215858179635137 0.1737964996919513 0  0.9080221499231149 0.1220333110997775 0  1.122434100542598 0 0  1.070453094842314 0.06960241275844714 0  1.154904552424504 0.06969164993518225 0  1.017753695734191 0.3624508760213758 0  0.8363367911675036 0.3257327955680793 0  1.05413544556068 0.41 0  0.6244559818022579 0.1024805481876779 0  0.6321311710823254 0.06153785161297727 0  0.595034110037278 0.08371649311769892 0  1.002160515162412 0.1007971030886586 0  1.051646085559005 0.1501053523947661 0  0.7970763259525799 0.1414049767778835 0  0.8757744372027163 0.0680967899541615 0  0.9457932773848412 0.0667989600995588 0  1.054135445558498 0 0  0.7467958595648856 0 0  0.8039733463919316 0 0  0.7693776708684824 0.05639711714283061 0  0.9246101326867038 0 0  0.9882218810934433 0 0  1.005346589798493 0.3067901807747939 0  1.048577150438126 0.2582185237349715 0  1.112767688411364 0.1251261100534626 0  1.171970583870903 0.1546087622866204 0  1.342519516048286 0.41 0  1.266535089881505 0.41 0  1.274599158297837 0.3398495556128484 0  0.8625643833134949 0.2947679371372982 0  1.21281999103096 0.3139909211204517 0  1.019068245937061 0.0469337202247656 0  0.9665635209117881 0.1540989494284837 0  1.008472627814504 0.204999999999892 0  1.111528583326901 0.2818863422907276 0  0.8280582783289157 0.04600943632764167 0  0.7467958595662458 0.41 0  0.6916151138480078 0.41 0  0.7140255670996881 0.3646166311524474 0  0.763519512252238 0.1106765968361548 0  1.146963556870385 0.2220662070926035 0  0.7666101362390253 0.3578469139891653 0  0.7236859362722395 0.2517828338101294 0  0.7667165827043843 0.2524551100397078 0  1.084668006184735 0.2128250251286081 0  0.814691562998009 0.09619193426127341 0  0.7613343746328384 0.3026779105476945 0  0.8174223541212756 0.2698453306575623 0  0.7176052736190859 0.2162836958912044 0  0.7959218455617475 0.3268864684847159 0  1.193204177143353 0.41 0  1.193204177141305 0 0  0.5932743238853959 0.04945528001359441 0  0.6649882407551387 0.02261378243973851 0  0.8039733463934788 0.41 0  0.5869673343216626 0 0  0.619281841121555 0.02915265998465505 0  1.118750868833027 0.1743068070907049 0  0.9108122465318981 0.04113381345596949 0  0.953518183350995 0.1113177413147439 0  0.7293997039068749 0.1878315768275717 0  0.860027688655414 0.1096039208573359 0  0.8632198139502143 0 0  0.7294932489647475 0.2840789881590486 0  1.221368790720609 0.3632125781021275 0  0.6641520523959832 0.1503720468916702 0  0.9607107278835494 0.2834185756442621 0  0.6527022231295108 0.08569477788831682 0  0.6916151138468254 0 0  0.8438935925208596 0.2159584135336446 0  0.7014764931779993 0.1925000000000107 0  0.6711932754123612 0.1788117674793375 0  0.6915000583673684 0.1646401469634124 0  0.7279457694224267 0.3237962213587685 0  0.9950305598379717 0.2553450661633512 0  0.6383613676634521 0 0  0.7206274800156242 0.161583396443773 0  </DataArray>
</Points>
<Cells>
<DataArray  type="UInt32"  Name="connectivity"  format="ascii">0 1 2  3 4 5  1 6 2  7 8 9  10 4 5  11 12 13  0 14 2  0 1 15  16 14 2  17 18 19  20 21 22  23 24 25  3 26 27  28 26 27  29 30 31  17 19 32  33 21 22  7 34 8  35 36 37  38 30 39  23 24 40  10 19 21  28 41 42  43 29 30  44 45 46  47 48 42  49 8 50  51 31 52  51 30 39  53 54 55  10 21 56  0 46 14  57 12 13  48 42 58  38 59 39  60 59 39  61 8 50  45 46 62  60 4 59  63 64 65  0 46 66  11 67 13  63 65 68  61 8 9  23 26 40  49 19 32  69 25 70  60 71 50  72 46 62  73 74 70  69 25 75  60 71 39  51 30 31  23 74 70  4 59 27  73 74 76  61 71 50  38 42 58  77 7 9  29 78 31  79 36 37  16 14 80  44 46 14  61 71 67  81 63 68  33 74 76  72 46 66  82 79 83  72 41 62  23 25 70  71 39 84  41 42 85  18 19 21  51 39 84  28 42 86  24 25 87  72 41 88  47 42 85  89 41 62  69 70 90  72 26 40  57 55 12  77 9 91  20 81 22  1 6 92  10 19 93  33 21 56  35 6 94  95 44 14  23 74 96  23 26 96  97 98 99  36 83 80  95 14 80  89 41 85  49 19 93  28 26 88  33 74 56  18 20 21  3 26 96  72 26 88  11 67 52  16 36 80  24 66 15  28 41 88  0 66 15  57 9 91  3 4 27  45 89 62  73 70 90  81 68 22  34 8 32  38 42 86  49 8 32  65 68 100  98 92 99  38 30 58  43 30 58  10 4 93  67 52 84  89 47 85  73 68 100  60 4 101  6 2 94  34 17 32  61 9 13  48 43 58  28 59 27  38 59 86  82 102 83  28 59 86  57 9 13  97 103 99  102 95 80  54 77 91  24 66 40  49 50 101  72 66 40  35 36 94  1 92 99  60 50 101  73 68 76  1 103 15  1 103 99  24 103 15  97 75 87  24 103 87  54 55 91  74 5 96  71 67 84  97 103 87  4 93 101  79 36 83  57 55 91  61 67 13  16 36 94  74 5 56  25 75 87  51 52 84  16 2 94  102 83 80  49 93 101  10 5 56  68 22 76  3 5 96  33 22 76  73 100 90  </DataArray>
<DataArray  type="UInt32"  Name="offsets"  format="ascii">3 6 9 12 15 18 21 24 27 30 33 36 39 42 45 48 51 54 57 60 63 66 69 72 75 78 81 84 87 90 93 96 99 102 105 108 111 114 117 120 123 126 129 132 135 138 141 144 147 150 153 156 159 162 165 168 171 174 177 180 183 186 189 192 195 198 201 204 207 210 213 216 219 222 225 228 231 234 237 240 243 246 249 252 255 258 261 264 267 270 273 276 279 282 285 288 291 294 297 300 303 306 309 312 315 318 321 324 327 330 333 336 339 342 345 348 351 354 357 360 363 366 369 372 375 378 381 384 387 390 393 396 399 402 405 408 411 414 417 420 423 426 429 432 435 438 441 444 447 450 453 456 459 462 465 468 471 474 477 480 483 486 489 492 495 498 501 </DataArray>
<DataArray  type="UInt8"  Name="types"  format="ascii">5 5 5 5 5 5 5 5 5 5 5 5 5 5 5 5 5 5 5 5 5 5 5 5 5 5 5 5 5 5 5 5 5 5 5 5 5 5 5 5 5 5 5 5 5 5 5 5 5 5 5 5 5 5 5 5 5 5 5 5 5 5 5 5 5 5 5 5 5 5 5 5 5 5 5 5 5 5 5 5 5 5 5 5 5 5 5 5 5 5 5 5 5 5 5 5 5 5 5 5 5 5 5 5 5 5 5 5 5 5 5 5 5 5 5 5 5 5 5 5 5 5 5 5 5 5 5 5 5 5 5 5 5 5 5 5 5 5 5 5 5 5 5 5 5 5 5 5 5 5 5 5 5 5 5 5 5 5 5 5 5 5 5 5 5 5 5 </DataArray>
</Cells>
<PointData  Vectors="f_43-1"> 
<DataArray  type="Float64"  Name="f_43-1"  NumberOfComponents="3" format="ascii">-4.8336499171170882e-06 1.0976404054587399e-04 0.0000000000000000e+00  -7.9164578174513264e-06 1.7900135244029491e-04 0.0000000000000000e+00  -5.9432827204152515e-06 1.3998463782190310e-04 0.0000000000000000e+00  -2.1355859149329406e-06 4.3908783285066061e-05 0.0000000000000000e+00  -1.3190966198671067e-06 2.6854618348042431e-05 0.0000000000000000e+00  -2.2084501297865378e-06 4.5000417173951785e-05 0.0000000000000000e+00  -8.7196784061122949e-06 2.0749744321719318e-04 0.0000000000000000e+00  0.0000000000000000e+00 0.0000000000000000e+00 0.0000000000000000e+00  -2.4471929632911769e-07 4.8875081688076842e-06 0.0000000000000000e+00  -1.1751366446683954e-07 2.3222678246572353e-06 0.0000000000000000e+00  -1.4034805001760763e-06 2.8390794209586251e-05 0.0000000000000000e+00  -1.4499605346580109e-07 2.8425823141502527e-06 0.0000000000000000e+00  -9.7614588627803964e-08 1.9012108422507656e-06 0.0000000000000000e+00  -1.7107734161963285e-07 3.3726038189274869e-06 0.0000000000000000e+00  -2.4820939400427586e-06 5.7750764326139537e-05 0.0000000000000000e+00  -6.0181206712953258e-06 1.3307524378760544e-04 0.0000000000000000e+00  -3.8419992568565228e-06 9.3093034944194902e-05 0.0000000000000000e+00  0.0000000000000000e+00 0.0000000000000000e+00 0.0000000000000000e+00  0.0000000000000000e+00 0.0000000000000000e+00 0.0000000000000000e+00  -5.9902099665367538e-07 1.2052273273157242e-05 0.0000000000000000e+00  0.0000000000000000e+00 0.0000000000000000e+00 0.0000000000000000e+00  -9.3175722916137384e-07 1.8693540936120924e-05 0.0000000000000000e+00  -1.2233460815148999e-06 2.4270735173066002e-05 0.0000000000000000e+00  -4.2443320316945670e-06 8.8279024588214033e-05 0.0000000000000000e+00  -5.5613723137931774e-06 1.1925150985269025e-04 0.0000000000000000e+00  -6.3547159262528892e-06 1.3224987042169661e-04 0.0000000000000000e+00  -2.5730378814528406e-06 5.3799495961318568e-05 0.0000000000000000e+00  -1.5189410359558742e-06 3.1233765511748192e-05 0.0000000000000000e+00  -1.3923693470446900e-06 2.8917828556025010e-05 0.0000000000000000e+00  0.0000000000000000e+00 0.0000000000000000e+00 0.0000000000000000e+00  -2.3800028515313695e-07 4.7979831658132553e-06 0.0000000000000000e+00  -1.2049503667714635e-07 2.3919678962114141e-06 0.0000000000000000e+00  -2.5760896936494225e-07 5.1650886087750149e-06 0.0000000000000000e+00  -1.9013768942617573e-06 3.8062347771543404e-05 0.0000000000000000e+00  0.0000000000000000e+00 0.0000000000000000e+00 0.0000000000000000e+00  -8.6726170062395789e-06 2.1968150934863684e-04 0.0000000000000000e+00  -4.8224352279125956e-06 1.2311280428982160e-04 0.0000000000000000e+00  -7.3269049219733303e-06 1.9831937935451438e-04 0.0000000000000000e+00  -5.6650246843517435e-07 1.1557213342411765e-05 0.0000000000000000e+00  -4.9911873433038266e-07 1.0068880256593691e-05 0.0000000000000000e+00  -3.7114584429927253e-06 7.9099938200512677e-05 0.0000000000000000e+00  -1.1036447633011445e-06 2.3283975805157560e-05 0.0000000000000000e+00  -6.2407443223002946e-07 1.2913806342672710e-05 0.0000000000000000e+00  0.0000000000000000e+00 0.0000000000000000e+00 0.0000000000000000e+00  0.0000000000000000e+00 0.0000000000000000e+00 0.0000000000000000e+00  0.0000000000000000e+00 0.0000000000000000e+00 0.0000000000000000e+00  -2.0570907955988971e-06 4.5608536447547321e-05 0.0000000000000000e+00  0.0000000000000000e+00 0.0000000000000000e+00 0.0000000000000000e+00  0.0000000000000000e+00 0.0000000000000000e+00 0.0000000000000000e+00  -5.6804091120778848e-07 1.1423804657335951e-05 0.0000000000000000e+00  -5.1603316254420239e-07 1.0358926219575827e-05 0.0000000000000000e+00  -2.7273476117016383e-07 5.4498354246083167e-06 0.0000000000000000e+00  -1.9114090328950765e-07 3.7783554765803861e-06 0.0000000000000000e+00  0.0000000000000000e+00 0.0000000000000000e+00 0.0000000000000000e+00  0.0000000000000000e+00 0.0000000000000000e+00 0.0000000000000000e+00  -4.5965484068366005e-08 8.9090973719720809e-07 0.0000000000000000e+00  -1.9727238782393764e-06 3.9827600326602086e-05 0.0000000000000000e+00  -9.9538544071256742e-08 1.9500875584756240e-06 0.0000000000000000e+00  -2.4907069052769370e-07 5.0746292948928272e-06 0.0000000000000000e+00  -1.0036582797498793e-06 2.0531346398200827e-05 0.0000000000000000e+00  -7.7676297901262353e-07 1.5721734643699007e-05 0.0000000000000000e+00  -2.8069632668127181e-07 5.5853817512959502e-06 0.0000000000000000e+00  -1.0977867212228989e-06 2.3635364951743783e-05 0.0000000000000000e+00  0.0000000000000000e+00 0.0000000000000000e+00 0.0000000000000000e+00  0.0000000000000000e+00 0.0000000000000000e+00 0.0000000000000000e+00  -2.8001839650114083e-06 5.2986948356530266e-05 0.0000000000000000e+00  -3.9939583945868548e-06 8.7398299956838399e-05 0.0000000000000000e+00  -2.5085824484626002e-07 4.9729614884553333e-06 0.0000000000000000e+00  -2.1424097554587373e-06 4.1802388141079780e-05 0.0000000000000000e+00  -7.5631097267932823e-06 1.5217227532593550e-04 0.0000000000000000e+00  -5.2507515733093358e-06 1.0648286295061850e-04 0.0000000000000000e+00  -4.1844718257075842e-07 8.3760876116137044e-06 0.0000000000000000e+00  -2.4051870501981118e-06 5.1637818449540820e-05 0.0000000000000000e+00  -4.2697358135156899e-06 8.4496815594683192e-05 0.0000000000000000e+00  -3.2450769510780858e-06 6.5703829739764585e-05 0.0000000000000000e+00  -8.4581137919174639e-06 1.7507657995368710e-04 0.0000000000000000e+00  -2.6062711219046779e-06 5.1716637269288328e-05 0.0000000000000000e+00  0.0000000000000000e+00 0.0000000000000000e+00 0.0000000000000000e+00  0.0000000000000000e+00 0.0000000000000000e+00 0.0000000000000000e+00  -4.1352653550230772e-06 1.1393106356189680e-04 0.0000000000000000e+00  -1.5380284200244539e-06 3.7814685065697408e-05 0.0000000000000000e+00  0.0000000000000000e+00 0.0000000000000000e+00 0.0000000000000000e+00  0.0000000000000000e+00 0.0000000000000000e+00 0.0000000000000000e+00  -2.3099765935768794e-06 6.0803572097385558e-05 0.0000000000000000e+00  -3.0910130786672404e-07 6.1625052790940165e-06 0.0000000000000000e+00  -5.1826504097289093e-07 1.0837521753755731e-05 0.0000000000000000e+00  -9.0441454609170636e-07 1.8619161882273969e-05 0.0000000000000000e+00  -7.4606759594979386e-06 1.5805649206757652e-04 0.0000000000000000e+00  -1.8809181163680421e-06 3.9633466133016122e-05 0.0000000000000000e+00  0.0000000000000000e+00 0.0000000000000000e+00 0.0000000000000000e+00  -6.2501477350790474e-06 1.2334948977912375e-04 0.0000000000000000e+00  -4.8562106886552642e-08 9.4978621284302516e-07 0.0000000000000000e+00  -1.0886902340611514e-05 2.4886091133662655e-04 0.0000000000000000e+00  -9.4665208624350844e-07 1.9127540880266118e-05 0.0000000000000000e+00  -6.3423149601953989e-06 1.5530173713783246e-04 0.0000000000000000e+00  0.0000000000000000e+00 0.0000000000000000e+00 0.0000000000000000e+00  -2.9444590811703193e-06 6.0606466720475813e-05 0.0000000000000000e+00  -9.5620238116062894e-06 2.0298272478652685e-04 0.0000000000000000e+00  -1.2005731088718193e-05 2.6230619108224304e-04 0.0000000000000000e+00  -9.5254382245132698e-06 2.0936174754476652e-04 0.0000000000000000e+00  -4.6273899007939292e-06 8.9493854150454879e-05 0.0000000000000000e+00  -8.0389375825441551e-07 1.6235228294443763e-05 0.0000000000000000e+00  0.0000000000000000e+00 0.0000000000000000e+00 0.0000000000000000e+00  -7.4261108766217586e-06 1.6120060881996465e-04 0.0000000000000000e+00  </DataArray> 
</PointData> 
</Piece>
</UnstructuredGrid>
</VTKFile>