<?xml version="1.0"?>
<VTKFile type="UnstructuredGrid"  version="0.1"  >
<UnstructuredGrid>
<Piece  NumberOfPoints="104" NumberOfCells="170">
<Points>
<DataArray  type="Float64"  NumberOfComponents="3"  format="ascii">1.835188936345112 0.2050000000000699 0  1.838465412967181 0.2953145553852501 0  1.915883512473161 0.2050000000000692 0  1.833166318986108 0.1007828475280248 0  2.383594446803656 0.41 0  2.271253957291315 0.41 0  2.346386298105263 0.3062476289039515 0  1.943162250261133 0.2848182236928814 0  1.943162250261127 0.1251817763071746 0  2.244824738199097 0.3091885999356265 0  1.317087908068179 0.2834507950760127 0  1.416789257258389 0.3075294577736497 0  1.357724299039236 0.2303555143487852 0  2.383594446803425 0 0  2.301748441448983 0.1032848369023014 0  2.415100580332905 0.08367007402675902 0  1.674965418778818 0.41 0  1.58737143976041 0.41 0  1.617304647871871 0.3102553946317155 0  1.587371439758838 0 0  1.674965418777374 0 0  1.627799041349754 0.08170835291169204 0  2.01253088870001 0.2050000000000507 0  1.419591277297145 0.2050000000000071 0  1.421253448505726 0.41 0  1.355827918100823 0.3414955155607449 0  1.421253448503939 0 0  1.418271536314166 0.09353562972960013 0  1.355827918100725 0.06850448443910542 0  2.271253957290865 0 0  2.221794121152559 0.193316850609006 0  2.14411344490712 0.1276195594235362 0  2.20472152769965 0.0713281875562741 0  2.162836591190598 0.41 0  2.147307993563104 0.2912592059815138 0  2.038256300678318 0.30845338105422 0  2.047027225616214 0.1093313109621388 0  1.481410117014457 0.06937107043222147 0  1.48141011701467 0.3406289295679558 0  1.524155460997452 0.2819410593007779 0  1.564450317521975 0.2271796767815198 0  1.465985145565885 0.2641043271703594 0  1.266535089879536 0 0  1.342519516046404 0 0  1.279016580461126 0.07083697001675755 0  1.342519516048286 0.41 0  1.274599158297837 0.3398495556128484 0  2.108400983319523 0.2055533675589543 0  2.373655112860451 0.1537499999996177 0  1.628719644697639 0.2049999999998413 0  1.211433695886656 0.1017136889209831 0  1.154904552424504 0.06969164993518225 0  1.171970583870903 0.1546087622866204 0  1.701137648393037 0.3376494258761434 0  1.700761363836473 0.07263158433296307 0  2.102498890674862 0.3526963313409883 0  1.313454781190754 0.1289288827375083 0  1.297747271073664 0.2033748759239161 0  1.375324131717186 0.1546989106163036 0  1.545933585256563 0.3495591173405724 0  1.675302090383742 0.2650203692236395 0  1.552569533868087 0.0624528013784801 0  1.859776908881246 0.41 0  1.77165877836765 0.3410140663813219 0  1.859776908880082 0 0  1.771658778367727 0.06898593361867472 0  1.765729001826854 0.41 0  1.765729001825544 0 0  1.518790312518014 0.1283243218597927 0  1.503227144622031 0.2021724267143327 0  1.582623387495486 0.1516962052714668 0  2.419800870255347 0.3337695350602363 0  1.255220929810424 0.1520691346915538 0  1.502836389106271 0 0  1.502836389107956 0.41 0  1.193204177141305 0 0  1.221874249400422 0.04798078752710374 0  1.215451113850732 0.2103314603357224 0  1.731954290521287 0.2842886317693051 0  1.779077369991058 0.2291039503226278 0  1.249863529963017 0.2672258935273379 0  2.317206511801082 0.2150857089256538 0  2.5 0 0  1.781967815577297 0.1551145542927359 0  2.5 0.2049999999994743 0  2.5 0.3074999999997183 0  2.416929161926448 0.2327464213792422 0  2.5 0.1024999999997612 0  2.5 0.41 0  1.909407874218324 0.3475920460897405 0  1.898307784123137 0.0640781879350478 0  2.058205329870775 0.41 0  1.957227977488067 0.41 0  1.976157046732302 0.3420030364334853 0  1.957227977487062 0 0  2.058205329869943 0 0  1.976157046732181 0.06799696356641864 0  1.455141435660884 0.1456544069830235 0  1.728567729514045 0.1282404601140156 0  1.712479779067637 0.2028183087747138 0  2.116985070695456 0.06169297422380063 0  2.162836591189951 0 0  1.665417171861409 0.1438806335169778 0  2.443165304650843 0.1549388660538532 0  </DataArray>
</Points>
<Cells>
<DataArray  type="UInt32"  Name="connectivity"  format="ascii">0 1 2  0 3 2  4 5 6  7 1 2  8 3 2  5 6 9  10 11 12  13 14 15  16 17 18  19 20 21  22 7 2  22 8 2  23 11 12  24 11 25  26 27 28  29 13 14  30 31 32  33 34 9  10 11 25  22 7 35  22 8 36  26 27 37  24 11 38  39 18 40  23 11 41  42 43 44  30 14 32  45 46 25  43 44 28  22 35 47  22 36 47  48 14 15  49 18 40  50 51 52  34 35 47  31 36 47  16 18 53  20 21 54  33 34 55  30 34 47  30 31 47  56 57 58  39 18 59  49 18 60  57 12 58  5 33 9  17 18 59  19 21 61  24 45 25  43 26 28  30 34 9  62 1 63  64 3 65  62 66 63  67 64 65  68 69 70  4 6 71  69 40 70  50 44 72  26 73 37  74 24 38  75 51 76  50 52 72  77 52 72  78 1 79  66 16 53  20 67 54  56 28 58  10 46 80  56 44 72  6 9 81  30 9 81  0 1 79  82 13 15  27 28 58  21 61 70  68 61 70  77 57 72  77 57 80  0 3 83  78 1 63  84 85 86  10 46 25  56 44 28  82 87 15  85 86 71  66 53 63  67 54 65  50 51 76  88 4 71  7 1 89  8 3 90  10 57 80  56 57 72  91 92 93  94 95 96  91 35 93  95 36 96  10 57 12  88 85 71  48 14 81  11 38 41  27 37 97  62 1 89  64 3 90  30 14 81  73 19 61  17 74 59  39 38 41  68 37 97  98 99 83  27 58 97  23 58 97  99 79 83  34 35 55  31 36 100  101 29 32  92 62 89  64 94 90  23 12 58  74 38 59  73 37 61  7 35 93  8 36 96  75 42 76  23 69 41  23 69 97  29 14 32  39 69 41  68 69 97  33 91 55  95 101 100  91 35 55  95 36 100  39 69 40  42 44 76  6 86 71  39 38 59  68 37 61  101 32 100  18 53 60  21 54 102  50 44 76  87 84 103  21 70 102  49 70 102  31 32 100  78 53 60  98 54 102  98 65 83  49 99 102  49 99 60  49 40 70  3 65 83  98 99 102  78 99 60  78 53 63  98 54 65  92 89 93  94 90 96  48 86 81  78 99 79  6 86 81  0 79 83  87 15 103  7 89 93  8 90 96  84 86 103  48 15 103  48 86 103  </DataArray>
<DataArray  type="UInt32"  Name="offsets"  format="ascii">3 6 9 12 15 18 21 24 27 30 33 36 39 42 45 48 51 54 57 60 63 66 69 72 75 78 81 84 87 90 93 96 99 102 105 108 111 114 117 120 123 126 129 132 135 138 141 144 147 150 153 156 159 162 165 168 171 174 177 180 183 186 189 192 195 198 201 204 207 210 213 216 219 222 225 228 231 234 237 240 243 246 249 252 255 258 261 264 267 270 273 276 279 282 285 288 291 294 297 300 303 306 309 312 315 318 321 324 327 330 333 336 339 342 345 348 351 354 357 360 363 366 369 372 375 378 381 384 387 390 393 396 399 402 405 408 411 414 417 420 423 426 429 432 435 438 441 444 447 450 453 456 459 462 465 468 471 474 477 480 483 486 489 492 495 498 501 504 507 510 </DataArray>
<DataArray  type="UInt8"  Name="types"  format="ascii">5 5 5 5 5 5 5 5 5 5 5 5 5 5 5 5 5 5 5 5 5 5 5 5 5 5 5 5 5 5 5 5 5 5 5 5 5 5 5 5 5 5 5 5 5 5 5 5 5 5 5 5 5 5 5 5 5 5 5 5 5 5 5 5 5 5 5 5 5 5 5 5 5 5 5 5 5 5 5 5 5 5 5 5 5 5 5 5 5 5 5 5 5 5 5 5 5 5 5 5 5 5 5 5 5 5 5 5 5 5 5 5 5 5 5 5 5 5 5 5 5 5 5 5 5 5 5 5 5 5 5 5 5 5 5 5 5 5 5 5 5 5 5 5 5 5 5 5 5 5 5 5 5 5 5 5 5 5 5 5 5 5 5 5 5 5 5 5 5 5 </DataArray>
</Cells>
<PointData  Vectors="f_43-1"> 
<DataArray  type="Float64"  Name="f_43-1"  NumberOfComponents="3" format="ascii">-2.6130777648650642e-09 5.5719877216269715e-08 0.0000000000000000e+00  -1.9635845938307089e-09 4.1872031653845212e-08 0.0000000000000000e+00  -1.3699329028254245e-09 2.9275164185312550e-08 0.0000000000000000e+00  -1.8552357083819861e-09 3.9559545198485570e-08 0.0000000000000000e+00  0.0000000000000000e+00 0.0000000000000000e+00 0.0000000000000000e+00  0.0000000000000000e+00 0.0000000000000000e+00 0.0000000000000000e+00  -2.9331914217828098e-11 6.3093633361690894e-10 0.0000000000000000e+00  -9.0765384281924650e-10 1.9408456781808284e-08 0.0000000000000000e+00  -9.0941788725015816e-10 1.9446583894798506e-08 0.0000000000000000e+00  -6.8981803323997254e-11 1.4826527395207972e-09 0.0000000000000000e+00  -1.2991524832813287e-07 2.7113459621707807e-06 0.0000000000000000e+00  -5.0713933417976880e-08 1.0639501544803675e-06 0.0000000000000000e+00  -1.1209773293357589e-07 2.3469968098328510e-06 0.0000000000000000e+00  0.0000000000000000e+00 0.0000000000000000e+00 0.0000000000000000e+00  -4.3761793640514713e-11 9.4104635357684979e-10 0.0000000000000000e+00  -1.1528715852021681e-11 2.4805798796477934e-10 0.0000000000000000e+00  0.0000000000000000e+00 0.0000000000000000e+00 0.0000000000000000e+00  0.0000000000000000e+00 0.0000000000000000e+00 0.0000000000000000e+00  -1.0156696913543133e-08 2.1499294125947340e-07 0.0000000000000000e+00  0.0000000000000000e+00 0.0000000000000000e+00 0.0000000000000000e+00  0.0000000000000000e+00 0.0000000000000000e+00 0.0000000000000000e+00  -7.9117335661334318e-09 1.6761850396011972e-07 0.0000000000000000e+00  -6.3844240533628922e-10 1.3673182279665162e-08 0.0000000000000000e+00  -6.9985097281519826e-08 1.4700490620402298e-06 0.0000000000000000e+00  0.0000000000000000e+00 0.0000000000000000e+00 0.0000000000000000e+00  -5.8057061384863294e-08 1.2135554695243541e-06 0.0000000000000000e+00  0.0000000000000000e+00 0.0000000000000000e+00 0.0000000000000000e+00  -4.6469562205364334e-08 9.7711335030078592e-07 0.0000000000000000e+00  -5.7863117324993725e-08 1.2144385972222880e-06 0.0000000000000000e+00  0.0000000000000000e+00 0.0000000000000000e+00 0.0000000000000000e+00  -1.1937138558493275e-10 2.5650308829480241e-09 0.0000000000000000e+00  -1.8587593457372020e-10 3.9900827851781001e-09 0.0000000000000000e+00  -7.1513595253461137e-11 1.5363826161726968e-09 0.0000000000000000e+00  0.0000000000000000e+00 0.0000000000000000e+00 0.0000000000000000e+00  -1.7299848511536918e-10 3.7137725788002258e-09 0.0000000000000000e+00  -3.6593274070652459e-10 7.8409297160135049e-09 0.0000000000000000e+00  -3.6146972128079792e-10 7.7467257760101973e-09 0.0000000000000000e+00  -2.1730089265123164e-08 4.5800856503032187e-07 0.0000000000000000e+00  -2.1767858282820342e-08 4.5807980933424717e-07 0.0000000000000000e+00  -2.5447500163040095e-08 5.3667673811200474e-07 0.0000000000000000e+00  -2.1952410572155644e-08 4.6382938758278608e-07 0.0000000000000000e+00  -4.3712642780071136e-08 9.1958169035940542e-07 0.0000000000000000e+00  0.0000000000000000e+00 0.0000000000000000e+00 0.0000000000000000e+00  0.0000000000000000e+00 0.0000000000000000e+00 0.0000000000000000e+00  -1.0940368994814600e-07 2.2915013024583366e-06 0.0000000000000000e+00  0.0000000000000000e+00 0.0000000000000000e+00 0.0000000000000000e+00  -1.1303736333357324e-07 2.3496912042220531e-06 0.0000000000000000e+00  -2.9702041025933590e-10 6.3724898127062946e-09 0.0000000000000000e+00  -2.9069619619224562e-11 6.2537534966881201e-10 0.0000000000000000e+00  -1.3383301768558458e-08 2.8348271659758651e-07 0.0000000000000000e+00  -2.5366645614675214e-07 5.3030533692430110e-06 0.0000000000000000e+00  -2.8567145857319263e-07 5.9807645674268812e-06 0.0000000000000000e+00  -4.5685637883495639e-07 9.5177218588639218e-06 0.0000000000000000e+00  -3.9648879411621270e-09 8.4185168852868458e-08 0.0000000000000000e+00  -3.9936994192955944e-09 8.4819852935697531e-08 0.0000000000000000e+00  -1.3222660411199604e-10 2.8366186978939581e-09 0.0000000000000000e+00  -1.3504351005721575e-07 2.8280243349112574e-06 0.0000000000000000e+00  -1.8338827687496319e-07 3.8308258243674119e-06 0.0000000000000000e+00  -9.2014463347084897e-08 1.9304080077884252e-06 0.0000000000000000e+00  -1.1515952547489129e-08 2.4304253992286318e-07 0.0000000000000000e+00  -8.3132216712009237e-09 1.7635974366772856e-07 0.0000000000000000e+00  -1.1257715378671809e-08 2.3788530631022088e-07 0.0000000000000000e+00  0.0000000000000000e+00 0.0000000000000000e+00 0.0000000000000000e+00  -2.1688164025681795e-09 4.6157692439611942e-08 0.0000000000000000e+00  0.0000000000000000e+00 0.0000000000000000e+00 0.0000000000000000e+00  -2.1693021126430175e-09 4.6175824102186617e-08 0.0000000000000000e+00  0.0000000000000000e+00 0.0000000000000000e+00 0.0000000000000000e+00  0.0000000000000000e+00 0.0000000000000000e+00 0.0000000000000000e+00  -2.6583780977128361e-08 5.6093617515582880e-07 0.0000000000000000e+00  -3.6140545617808768e-08 7.6182837539798475e-07 0.0000000000000000e+00  -1.7701081738705037e-08 3.7435699998503149e-07 0.0000000000000000e+00  -9.9474457208071087e-12 2.1403840194132969e-10 0.0000000000000000e+00  -2.3543806404764106e-07 4.9176013698567826e-06 0.0000000000000000e+00  0.0000000000000000e+00 0.0000000000000000e+00 0.0000000000000000e+00  0.0000000000000000e+00 0.0000000000000000e+00 0.0000000000000000e+00  0.0000000000000000e+00 0.0000000000000000e+00 0.0000000000000000e+00  -1.1927315989350187e-07 2.4974312471847391e-06 0.0000000000000000e+00  -3.5090828737049871e-07 7.2983099813029199e-06 0.0000000000000000e+00  -4.8495240815145185e-09 1.0307901349606024e-07 0.0000000000000000e+00  -4.0028085518889336e-09 8.5211621374146322e-08 0.0000000000000000e+00  -2.3844688738591176e-07 4.9570849660280760e-06 0.0000000000000000e+00  -5.3381960173297816e-11 1.1480486850935103e-09 0.0000000000000000e+00  0.0000000000000000e+00 0.0000000000000000e+00 0.0000000000000000e+00  -3.6878230045261821e-09 7.8517657895579345e-08 0.0000000000000000e+00  0.0000000000000000e+00 0.0000000000000000e+00 0.0000000000000000e+00  0.0000000000000000e+00 0.0000000000000000e+00 0.0000000000000000e+00  -1.8399967527835949e-11 3.9590334684173781e-10 0.0000000000000000e+00  0.0000000000000000e+00 0.0000000000000000e+00 0.0000000000000000e+00  0.0000000000000000e+00 0.0000000000000000e+00 0.0000000000000000e+00  -6.6560674434879009e-10 1.4221052430891464e-08 0.0000000000000000e+00  -7.4216343653069715e-10 1.5853687144975129e-08 0.0000000000000000e+00  0.0000000000000000e+00 0.0000000000000000e+00 0.0000000000000000e+00  0.0000000000000000e+00 0.0000000000000000e+00 0.0000000000000000e+00  -4.2396624959901104e-10 9.0727248973256304e-09 0.0000000000000000e+00  0.0000000000000000e+00 0.0000000000000000e+00 0.0000000000000000e+00  0.0000000000000000e+00 0.0000000000000000e+00 0.0000000000000000e+00  -4.2370703375624813e-10 9.0675515788031559e-09 0.0000000000000000e+00  -4.7491742950241023e-08 9.9957228828305277e-07 0.0000000000000000e+00  -5.0499998541141926e-09 1.0734424545468206e-07 0.0000000000000000e+00  -6.8985282022124836e-09 1.4654793809466147e-07 0.0000000000000000e+00  -1.2659237873621537e-10 2.7163936854317541e-09 0.0000000000000000e+00  0.0000000000000000e+00 0.0000000000000000e+00 0.0000000000000000e+00  -8.9377639529514122e-09 1.8958279701963715e-07 0.0000000000000000e+00  -1.1493710372863492e-11 2.4732115368681604e-10 0.0000000000000000e+00  </DataArray> 
</PointData> 
</Piece>
</UnstructuredGrid>
</VTKFile>