<?xml version="1.0"?>
<VTKFile type="UnstructuredGrid"  version="0.1"  >
<UnstructuredGrid>
<Piece  NumberOfPoints="104" NumberOfCells="170">
<Points>
<DataArray  type="Float64"  NumberOfComponents="3"  format="ascii">1.835188936345112 0.2050000000000699 0  1.838465412967181 0.2953145553852501 0  1.915883512473161 0.2050000000000692 0  1.833166318986108 0.1007828475280248 0  2.383594446803656 0.41 0  2.271253957291315 0.41 0  2.346386298105263 0.3062476289039515 0  1.943162250261133 0.2848182236928814 0  1.943162250261127 0.1251817763071746 0  2.244824738199097 0.3091885999356265 0  1.317087908068179 0.2834507950760127 0  1.416789257258389 0.3075294577736497 0  1.357724299039236 0.2303555143487852 0  2.383594446803425 0 0  2.301748441448983 0.1032848369023014 0  2.415100580332905 0.08367007402675902 0  1.674965418778818 0.41 0  1.58737143976041 0.41 0  1.617304647871871 0.3102553946317155 0  1.587371439758838 0 0  1.674965418777374 0 0  1.627799041349754 0.08170835291169204 0  2.01253088870001 0.2050000000000507 0  1.419591277297145 0.2050000000000071 0  1.421253448505726 0.41 0  1.355827918100823 0.3414955155607449 0  1.421253448503939 0 0  1.418271536314166 0.09353562972960013 0  1.355827918100725 0.06850448443910542 0  2.271253957290865 0 0  2.221794121152559 0.193316850609006 0  2.14411344490712 0.1276195594235362 0  2.20472152769965 0.0713281875562741 0  2.162836591190598 0.41 0  2.147307993563104 0.2912592059815138 0  2.038256300678318 0.30845338105422 0  2.047027225616214 0.1093313109621388 0  1.481410117014457 0.06937107043222147 0  1.48141011701467 0.3406289295679558 0  1.524155460997452 0.2819410593007779 0  1.564450317521975 0.2271796767815198 0  1.465985145565885 0.2641043271703594 0  1.266535089879536 0 0  1.342519516046404 0 0  1.279016580461126 0.07083697001675755 0  1.342519516048286 0.41 0  1.274599158297837 0.3398495556128484 0  2.108400983319523 0.2055533675589543 0  2.373655112860451 0.1537499999996177 0  1.628719644697639 0.2049999999998413 0  1.211433695886656 0.1017136889209831 0  1.154904552424504 0.06969164993518225 0  1.171970583870903 0.1546087622866204 0  1.701137648393037 0.3376494258761434 0  1.700761363836473 0.07263158433296307 0  2.102498890674862 0.3526963313409883 0  1.313454781190754 0.1289288827375083 0  1.297747271073664 0.2033748759239161 0  1.375324131717186 0.1546989106163036 0  1.545933585256563 0.3495591173405724 0  1.675302090383742 0.2650203692236395 0  1.552569533868087 0.0624528013784801 0  1.859776908881246 0.41 0  1.77165877836765 0.3410140663813219 0  1.859776908880082 0 0  1.771658778367727 0.06898593361867472 0  1.765729001826854 0.41 0  1.765729001825544 0 0  1.518790312518014 0.1283243218597927 0  1.503227144622031 0.2021724267143327 0  1.582623387495486 0.1516962052714668 0  2.419800870255347 0.3337695350602363 0  1.255220929810424 0.1520691346915538 0  1.502836389106271 0 0  1.502836389107956 0.41 0  1.193204177141305 0 0  1.221874249400422 0.04798078752710374 0  1.215451113850732 0.2103314603357224 0  1.731954290521287 0.2842886317693051 0  1.779077369991058 0.2291039503226278 0  1.249863529963017 0.2672258935273379 0  2.317206511801082 0.2150857089256538 0  2.5 0 0  1.781967815577297 0.1551145542927359 0  2.5 0.2049999999994743 0  2.5 0.3074999999997183 0  2.416929161926448 0.2327464213792422 0  2.5 0.1024999999997612 0  2.5 0.41 0  1.909407874218324 0.3475920460897405 0  1.898307784123137 0.0640781879350478 0  2.058205329870775 0.41 0  1.957227977488067 0.41 0  1.976157046732302 0.3420030364334853 0  1.957227977487062 0 0  2.058205329869943 0 0  1.976157046732181 0.06799696356641864 0  1.455141435660884 0.1456544069830235 0  1.728567729514045 0.1282404601140156 0  1.712479779067637 0.2028183087747138 0  2.116985070695456 0.06169297422380063 0  2.162836591189951 0 0  1.665417171861409 0.1438806335169778 0  2.443165304650843 0.1549388660538532 0  </DataArray>
</Points>
<Cells>
<DataArray  type="UInt32"  Name="connectivity"  format="ascii">0 1 2  0 3 2  4 5 6  7 1 2  8 3 2  5 6 9  10 11 12  13 14 15  16 17 18  19 20 21  22 7 2  22 8 2  23 11 12  24 11 25  26 27 28  29 13 14  30 31 32  33 34 9  10 11 25  22 7 35  22 8 36  26 27 37  24 11 38  39 18 40  23 11 41  42 43 44  30 14 32  45 46 25  43 44 28  22 35 47  22 36 47  48 14 15  49 18 40  50 51 52  34 35 47  31 36 47  16 18 53  20 21 54  33 34 55  30 34 47  30 31 47  56 57 58  39 18 59  49 18 60  57 12 58  5 33 9  17 18 59  19 21 61  24 45 25  43 26 28  30 34 9  62 1 63  64 3 65  62 66 63  67 64 65  68 69 70  4 6 71  69 40 70  50 44 72  26 73 37  74 24 38  75 51 76  50 52 72  77 52 72  78 1 79  66 16 53  20 67 54  56 28 58  10 46 80  56 44 72  6 9 81  30 9 81  0 1 79  82 13 15  27 28 58  21 61 70  68 61 70  77 57 72  77 57 80  0 3 83  78 1 63  84 85 86  10 46 25  56 44 28  82 87 15  85 86 71  66 53 63  67 54 65  50 51 76  88 4 71  7 1 89  8 3 90  10 57 80  56 57 72  91 92 93  94 95 96  91 35 93  95 36 96  10 57 12  88 85 71  48 14 81  11 38 41  27 37 97  62 1 89  64 3 90  30 14 81  73 19 61  17 74 59  39 38 41  68 37 97  98 99 83  27 58 97  23 58 97  99 79 83  34 35 55  31 36 100  101 29 32  92 62 89  64 94 90  23 12 58  74 38 59  73 37 61  7 35 93  8 36 96  75 42 76  23 69 41  23 69 97  29 14 32  39 69 41  68 69 97  33 91 55  95 101 100  91 35 55  95 36 100  39 69 40  42 44 76  6 86 71  39 38 59  68 37 61  101 32 100  18 53 60  21 54 102  50 44 76  87 84 103  21 70 102  49 70 102  31 32 100  78 53 60  98 54 102  98 65 83  49 99 102  49 99 60  49 40 70  3 65 83  98 99 102  78 99 60  78 53 63  98 54 65  92 89 93  94 90 96  48 86 81  78 99 79  6 86 81  0 79 83  87 15 103  7 89 93  8 90 96  84 86 103  48 15 103  48 86 103  </DataArray>
<DataArray  type="UInt32"  Name="offsets"  format="ascii">3 6 9 12 15 18 21 24 27 30 33 36 39 42 45 48 51 54 57 60 63 66 69 72 75 78 81 84 87 90 93 96 99 102 105 108 111 114 117 120 123 126 129 132 135 138 141 144 147 150 153 156 159 162 165 168 171 174 177 180 183 186 189 192 195 198 201 204 207 210 213 216 219 222 225 228 231 234 237 240 243 246 249 252 255 258 261 264 267 270 273 276 279 282 285 288 291 294 297 300 303 306 309 312 315 318 321 324 327 330 333 336 339 342 345 348 351 354 357 360 363 366 369 372 375 378 381 384 387 390 393 396 399 402 405 408 411 414 417 420 423 426 429 432 435 438 441 444 447 450 453 456 459 462 465 468 471 474 477 480 483 486 489 492 495 498 501 504 507 510 </DataArray>
<DataArray  type="UInt8"  Name="types"  format="ascii">5 5 5 5 5 5 5 5 5 5 5 5 5 5 5 5 5 5 5 5 5 5 5 5 5 5 5 5 5 5 5 5 5 5 5 5 5 5 5 5 5 5 5 5 5 5 5 5 5 5 5 5 5 5 5 5 5 5 5 5 5 5 5 5 5 5 5 5 5 5 5 5 5 5 5 5 5 5 5 5 5 5 5 5 5 5 5 5 5 5 5 5 5 5 5 5 5 5 5 5 5 5 5 5 5 5 5 5 5 5 5 5 5 5 5 5 5 5 5 5 5 5 5 5 5 5 5 5 5 5 5 5 5 5 5 5 5 5 5 5 5 5 5 5 5 5 5 5 5 5 5 5 5 5 5 5 5 5 5 5 5 5 5 5 5 5 5 5 5 5 </DataArray>
</Cells>
<PointData  Vectors="f_43-1"> 
<DataArray  type="Float64"  Name="f_43-1"  NumberOfComponents="3" format="ascii">-3.3157222733111300e-10 -7.0178692681810790e-10 0.0000000000000000e+00  -2.4928959784569955e-10 -5.2647254860774339e-10 0.0000000000000000e+00  -1.7667025152646625e-10 -3.5078616494706769e-10 0.0000000000000000e+00  -2.3532354141637099e-10 -4.9887787646156112e-10 0.0000000000000000e+00  0.0000000000000000e+00 0.0000000000000000e+00 0.0000000000000000e+00  0.0000000000000000e+00 0.0000000000000000e+00 0.0000000000000000e+00  -4.0745449930534828e-12 -5.8269890883483681e-12 0.0000000000000000e+00  -1.1765573200889589e-10 -2.2880624012681248e-10 0.0000000000000000e+00  -1.1787955129292057e-10 -2.2931289684280605e-10 0.0000000000000000e+00  -9.4466930081722110e-12 -1.4466086251072668e-11 0.0000000000000000e+00  -1.4723436697314307e-08 -4.5942658731459120e-08 0.0000000000000000e+00  -5.8818081385971881e-09 -1.7077063105140673e-08 0.0000000000000000e+00  -1.2841472394906719e-08 -3.8901246797842632e-08 0.0000000000000000e+00  0.0000000000000000e+00 0.0000000000000000e+00 0.0000000000000000e+00  -6.0433569817302832e-12 -8.8935891267942704e-12 0.0000000000000000e+00  -1.6122804300936337e-12 -2.2300067800617765e-12 0.0000000000000000e+00  0.0000000000000000e+00 0.0000000000000000e+00 0.0000000000000000e+00  0.0000000000000000e+00 0.0000000000000000e+00 0.0000000000000000e+00  -1.2317331874225929e-09 -3.0800986714672987e-09 0.0000000000000000e+00  0.0000000000000000e+00 0.0000000000000000e+00 0.0000000000000000e+00  0.0000000000000000e+00 0.0000000000000000e+00 0.0000000000000000e+00  -9.6219339412079044e-10 -2.3866175248974985e-09 0.0000000000000000e+00  -8.3874714346219015e-11 -1.5435855126997143e-10 0.0000000000000000e+00  -8.1338306528234123e-09 -2.3546872964347690e-08 0.0000000000000000e+00  0.0000000000000000e+00 0.0000000000000000e+00 0.0000000000000000e+00  -6.6361067236496801e-09 -2.0129722329641019e-08 0.0000000000000000e+00  0.0000000000000000e+00 0.0000000000000000e+00 0.0000000000000000e+00  -5.4061286630567294e-09 -1.5664232606543001e-08 0.0000000000000000e+00  -6.6465573193938635e-09 -2.0143278827011368e-08 0.0000000000000000e+00  0.0000000000000000e+00 0.0000000000000000e+00 0.0000000000000000e+00  -1.6283302081220148e-11 -2.5395989735352031e-11 0.0000000000000000e+00  -2.5018278566544272e-11 -4.1465412502739187e-11 0.0000000000000000e+00  -9.7276307555242892e-12 -1.5370206252506430e-11 0.0000000000000000e+00  0.0000000000000000e+00 0.0000000000000000e+00 0.0000000000000000e+00  -2.3296410986698088e-11 -3.8526170911653493e-11 0.0000000000000000e+00  -4.8305482553810263e-11 -8.7113356339151724e-11 0.0000000000000000e+00  -4.7795031741841629e-11 -8.5598971743996268e-11 0.0000000000000000e+00  -2.5626262649665915e-09 -7.0870567017271861e-09 0.0000000000000000e+00  -2.5621378065239844e-09 -7.0892294030045096e-09 0.0000000000000000e+00  -3.0248256765313641e-09 -8.1075282512982102e-09 0.0000000000000000e+00  -2.6329505732859195e-09 -6.8489783949700689e-09 0.0000000000000000e+00  -5.1293793715530355e-09 -1.4357677821229968e-08 0.0000000000000000e+00  0.0000000000000000e+00 0.0000000000000000e+00 0.0000000000000000e+00  0.0000000000000000e+00 0.0000000000000000e+00 0.0000000000000000e+00  -1.2373268078700146e-08 -3.9627929394114620e-08 0.0000000000000000e+00  0.0000000000000000e+00 0.0000000000000000e+00 0.0000000000000000e+00  -1.2656621303807114e-08 -4.0740494073964298e-08 0.0000000000000000e+00  -3.9727468472264890e-11 -6.7699103233526324e-11 0.0000000000000000e+00  -4.0496677729883036e-12 -5.7103986844183120e-12 0.0000000000000000e+00  -1.6275538989519514e-09 -4.0336420213151663e-09 0.0000000000000000e+00  -2.8295384304377259e-08 -9.5086402461000895e-08 0.0000000000000000e+00  -3.1617980882085148e-08 -1.1045793541789658e-07 0.0000000000000000e+00  -5.0405734611045607e-08 -1.7425083140228058e-07 0.0000000000000000e+00  -4.8950479238728725e-10 -1.1480466421049918e-09 0.0000000000000000e+00  -4.9316970865801238e-10 -1.1571047564413933e-09 0.0000000000000000e+00  -1.7668061017490302e-11 -3.0238788028214144e-11 0.0000000000000000e+00  -1.5358547734093217e-08 -4.8013342814729113e-08 0.0000000000000000e+00  -2.0737855767819455e-08 -6.5598690880453245e-08 0.0000000000000000e+00  -1.0598118764987946e-08 -3.1689014723039729e-08 0.0000000000000000e+00  -1.3750473053660818e-09 -3.6268381044156105e-09 0.0000000000000000e+00  -1.0207004829820288e-09 -2.4431069442707739e-09 0.0000000000000000e+00  -1.3476854381838316e-09 -3.5365032792422125e-09 0.0000000000000000e+00  0.0000000000000000e+00 0.0000000000000000e+00 0.0000000000000000e+00  -2.7171879747973975e-10 -6.0356417948991322e-10 0.0000000000000000e+00  0.0000000000000000e+00 0.0000000000000000e+00 0.0000000000000000e+00  -2.7182813702091535e-10 -6.0384218410614953e-10 0.0000000000000000e+00  0.0000000000000000e+00 0.0000000000000000e+00 0.0000000000000000e+00  0.0000000000000000e+00 0.0000000000000000e+00 0.0000000000000000e+00  -3.1589573836255723e-09 -8.5001929048291667e-09 0.0000000000000000e+00  -4.2781513590688854e-09 -1.1646904461072019e-08 0.0000000000000000e+00  -2.1319394507671776e-09 -5.4708589130202500e-09 0.0000000000000000e+00  -1.3916908456633499e-12 -1.9210473206290418e-12 0.0000000000000000e+00  -2.6428528203396489e-08 -8.6156943367593691e-08 0.0000000000000000e+00  0.0000000000000000e+00 0.0000000000000000e+00 0.0000000000000000e+00  0.0000000000000000e+00 0.0000000000000000e+00 0.0000000000000000e+00  0.0000000000000000e+00 0.0000000000000000e+00 0.0000000000000000e+00  -1.3354227604306170e-08 -4.4526426884896936e-08 0.0000000000000000e+00  -3.8922736970536127e-08 -1.3060644140072066e-07 0.0000000000000000e+00  -6.0256769489388336e-10 -1.3806019971087211e-09 0.0000000000000000e+00  -5.0217747759523175e-10 -1.1100470298869460e-09 0.0000000000000000e+00  -2.6588411792987194e-08 -8.7110133754642203e-08 0.0000000000000000e+00  -7.3880057216399323e-12 -1.0758014949713046e-11 0.0000000000000000e+00  0.0000000000000000e+00 0.0000000000000000e+00 0.0000000000000000e+00  -4.6297830133273548e-10 -1.0209680628859396e-09 0.0000000000000000e+00  0.0000000000000000e+00 0.0000000000000000e+00 0.0000000000000000e+00  0.0000000000000000e+00 0.0000000000000000e+00 0.0000000000000000e+00  -2.5732854432370760e-12 -3.5587304540910212e-12 0.0000000000000000e+00  0.0000000000000000e+00 0.0000000000000000e+00 0.0000000000000000e+00  0.0000000000000000e+00 0.0000000000000000e+00 0.0000000000000000e+00  -8.5722198490674199e-11 -1.7110631094634001e-10 0.0000000000000000e+00  -9.5396148040711840e-11 -1.9195458404110416e-10 0.0000000000000000e+00  0.0000000000000000e+00 0.0000000000000000e+00 0.0000000000000000e+00  0.0000000000000000e+00 0.0000000000000000e+00 0.0000000000000000e+00  -5.5315882600241101e-11 -1.0474572224379851e-10 0.0000000000000000e+00  0.0000000000000000e+00 0.0000000000000000e+00 0.0000000000000000e+00  0.0000000000000000e+00 0.0000000000000000e+00 0.0000000000000000e+00  -5.5285910114889379e-11 -1.0467637906421865e-10 0.0000000000000000e+00  -5.5660062516431533e-09 -1.5700096092092482e-08 0.0000000000000000e+00  -6.2712435673642919e-10 -1.4408077046803997e-09 0.0000000000000000e+00  -8.5373733637600545e-10 -1.9859370065741111e-09 0.0000000000000000e+00  -1.6958065032712977e-11 -2.8705273740498794e-11 0.0000000000000000e+00  0.0000000000000000e+00 0.0000000000000000e+00 0.0000000000000000e+00  -1.0954244011925371e-09 -2.6410905895700034e-09 0.0000000000000000e+00  -1.6100477778888379e-12 -2.2084066957905239e-12 0.0000000000000000e+00  </DataArray> 
</PointData> 
</Piece>
</UnstructuredGrid>
</VTKFile>