<?xml version="1.0"?>
<VTKFile type="UnstructuredGrid"  version="0.1"  >
<UnstructuredGrid>
<Piece  NumberOfPoints="103" NumberOfCells="170">
<Points>
<DataArray  type="Float64"  NumberOfComponents="3"  format="ascii">0.3012679105156187 0.19 0  0.3006558810093873 0.1999966199048318 0  0.2950977245127906 0.1961819304477774 0  0.301267910515333 0.21 0  0.2950977245128307 0.2038180695522663 0  0.2607803159922026 0.2000727136295815 0  0.2677053789419034 0.1964246479135325 0  0.267698176732111 0.2039977513680092 0  0.2751288526855082 0.20000000000002 0  0.2603913042767976 0.1945999920783741 0  0.2639263993299336 0.19 0  0.25 0.2 0  0.2497468076502589 0.2050254481002335 0  0.2550657455369551 0.2034088125358657 0  0.2825131256993216 0.2035478995978015 0  0.2825051229162361 0.1959834479681729 0  0.2894621222999649 0.1998691686390484 0  0.2713947015670686 0.19 0  0.2788630038040554 0.21 0  0.2863313060411479 0.21 0  0.2937996082784807 0.19 0  0.2937996082782405 0.21 0  0.2601812407614425 0.2056861609747042 0  0.2497468076502614 0.1949745518997913 0  0.2548908499171161 0.1966940311614271 0  0.2751288526855081 0.205697194228819 0  0.2751288526856362 0.1943028057711959 0  0.2895549462647731 0.1944069323160756 0  0.2564580970927985 0.19 0  0.2525889069107169 0.1926036384190297 0  0.2897864851748124 0.2055930218738881 0  0.25645809709277 0.21 0  0.25261805618068 0.2074135021971937 0  0.2639263993298655 0.21 0  0.271394701566961 0.21 0  0.2863313060413428 0.19 0  0.2788630038042048 0.19 0  0.2489897948556636 0.19 0  0.2489897948556636 0.21 0  0.2802365149396702 0.2293267412254819 0  0.2888197773682229 0.2217624015035644 0  0.2799011483571476 0.2201540359780956 0  0.2798983539554935 0.1725715317274126 0  0.2887875715604008 0.1784526411902859 0  0.2798265752054099 0.1801908109055989 0  0.2607466101664424 0.2266930975791233 0  0.271385042995999 0.2220255791858506 0  0.2640363109795177 0.2179944263838653 0  0.2544808243315743 0.2458504951732927 0  0.2658768459325225 0.2418747601129979 0  0.2588244756332078 0.23611127323402 0  0.2516468834717856 0.2324930308055588 0  0.2510679533716966 0.2249523323210773 0  0.2433956710264305 0.2381734167068584 0  0.2460613805257083 0.2485222416480207 0  0.2507569858396673 0.2399489856244889 0  0.2607333124992295 0.173299215235651 0  0.2711961111491841 0.1784474567953763 0  0.2640363109795686 0.1820055736160818 0  0.250265698216607 0.2591459325753045 0  0.2627897304119148 0.25271037528669 0  0.2397046897252064 0.2463916348380001 0  0.2693249379754523 0.232253714048252 0  0.246996525252926 0.2170682926548348 0  0.2561841824185058 0.2195000859865352 0  0.2469965252529372 0.1829317073451959 0  0.2561841824184873 0.1804999140134954 0  0.2510789311637825 0.1750218956597876 0  0.2854688561834498 0.2412236914981949 0  0.2752342263051384 0.2394149830158712 0  0.2897734241776366 0.2309782844302881 0  0.2352133972703547 0.2354967132658811 0  0.2400332147833751 0.2299556624715287 0  0.2898993665208313 0.2148884498665536 0  0.2825971549226016 0.2141870669404288 0  0.2533462554466219 0.2143516991142523 0  0.2533462554466303 0.18564830088576 0  0.2234150974215506 0.2441784247426195 0  0.2296339016331197 0.2402719738031125 0  0.2306200006656481 0.2483744735801409 0  0.2900654571599118 0.1851244352956092 0  0.2825971549227736 0.1858129330595456 0  0.2693200344911409 0.1703624615729042 0  0.2370670604668411 0.2561437100875122 0  0.2439893735792577 0.2237683615780412 0  0.2254320944728471 0.256276132616746 0  0.2751288526855082 0.2504894696471402 0  0.2973772572263381 0.2175617982546508 0  0.2973900081628705 0.1824599091601672 0  0.2460399618407353 0.2294379412176375 0  0.235672688557912 0.2416805760911849 0  0.2220625618530342 0.2502300158941232 0  0.2166911463435495 0.2471317900544655 0  0.2155707468285289 0.2556953171569842 0  0.2754241708482248 0.2153487639899751 0  0.3050224637686886 0.1840003691157356 0  0.3052148703289762 0.176135200920133 0  0.2751288526856362 0.184558060069257 0  0.2968565228222139 0.1734776848403526 0  0.2692521927396536 0.2151979606124073 0  0.2691876260717925 0.1848526873929683 0  0.2601922482113177 0.2140493078607503 0  0.260192248211366 0.1859506921392313 0  </DataArray>
</Points>
<Cells>
<DataArray  type="UInt32"  Name="connectivity"  format="ascii">0 1 2  3 1 4  5 6 7  8 6 7  5 6 9  10 6 9  11 12 13  8 14 15  16 14 15  17 10 6  18 19 14  0 20 2  21 3 4  5 7 22  11 23 24  8 7 25  8 15 26  11 13 24  16 15 27  18 14 25  8 14 25  28 24 29  8 6 26  17 6 26  19 14 30  16 14 30  31 13 32  33 34 7  35 36 15  5 13 24  12 13 32  33 7 22  28 24 9  34 7 25  31 13 22  36 15 26  23 24 29  1 4 2  16 4 2  35 15 27  10 28 9  31 33 22  5 24 9  20 35 27  19 21 30  36 17 26  34 18 25  5 13 22  37 23 29  38 12 32  20 2 27  21 4 30  16 4 30  16 2 27  37 28 29  38 31 32  39 40 41  42 43 44  45 46 47  48 49 50  45 51 52  53 54 55  56 57 58  48 59 60  61 53 54  45 46 62  39 46 41  42 57 44  63 64 52  39 46 62  65 66 67  39 68 69  39 68 70  39 40 70  45 62 50  71 72 53  40 73 74  63 64 75  65 66 76  48 49 60  77 78 79  43 80 81  42 57 82  45 64 52  40 41 74  83 61 54  45 64 47  56 66 67  43 44 81  84 63 52  48 54 55  83 61 79  56 66 58  56 57 82  45 51 50  48 50 55  83 85 79  86 49 60  39 62 69  48 59 54  21 3 87  49 62 50  0 20 88  72 53 89  83 59 54  71 53 90  86 49 69  78 79 90  77 79 91  92 93 91  86 68 69  51 53 89  46 41 94  0 88 95  96 88 95  57 44 97  21 87 73  20 88 80  61 53 90  96 88 98  61 79 90  49 62 69  33 34 99  17 10 100  85 79 91  33 47 99  10 58 100  85 93 91  40 87 73  43 88 98  34 18 94  36 17 97  43 88 80  51 50 55  19 21 73  38 31 75  20 35 80  37 28 76  33 47 101  51 53 55  10 58 102  31 75 101  38 63 75  28 76 102  37 65 76  84 52 89  64 75 101  72 84 89  78 71 90  66 76 102  64 47 101  92 77 91  66 58 102  18 94 74  36 97 81  31 33 101  10 28 102  18 19 74  35 36 81  19 73 74  35 80 81  46 47 99  57 58 100  51 52 89  41 94 74  44 97 81  46 94 99  57 97 100  34 94 99  17 97 100  </DataArray>
<DataArray  type="UInt32"  Name="offsets"  format="ascii">3 6 9 12 15 18 21 24 27 30 33 36 39 42 45 48 51 54 57 60 63 66 69 72 75 78 81 84 87 90 93 96 99 102 105 108 111 114 117 120 123 126 129 132 135 138 141 144 147 150 153 156 159 162 165 168 171 174 177 180 183 186 189 192 195 198 201 204 207 210 213 216 219 222 225 228 231 234 237 240 243 246 249 252 255 258 261 264 267 270 273 276 279 282 285 288 291 294 297 300 303 306 309 312 315 318 321 324 327 330 333 336 339 342 345 348 351 354 357 360 363 366 369 372 375 378 381 384 387 390 393 396 399 402 405 408 411 414 417 420 423 426 429 432 435 438 441 444 447 450 453 456 459 462 465 468 471 474 477 480 483 486 489 492 495 498 501 504 507 510 </DataArray>
<DataArray  type="UInt8"  Name="types"  format="ascii">5 5 5 5 5 5 5 5 5 5 5 5 5 5 5 5 5 5 5 5 5 5 5 5 5 5 5 5 5 5 5 5 5 5 5 5 5 5 5 5 5 5 5 5 5 5 5 5 5 5 5 5 5 5 5 5 5 5 5 5 5 5 5 5 5 5 5 5 5 5 5 5 5 5 5 5 5 5 5 5 5 5 5 5 5 5 5 5 5 5 5 5 5 5 5 5 5 5 5 5 5 5 5 5 5 5 5 5 5 5 5 5 5 5 5 5 5 5 5 5 5 5 5 5 5 5 5 5 5 5 5 5 5 5 5 5 5 5 5 5 5 5 5 5 5 5 5 5 5 5 5 5 5 5 5 5 5 5 5 5 5 5 5 5 5 5 5 5 5 5 </DataArray>
</Cells>
<PointData  Vectors="f_43-0"> 
<DataArray  type="Float64"  Name="f_43-0"  NumberOfComponents="3" format="ascii">4.0897294460355057e-05 2.0838646304507946e-04 0.0000000000000000e+00  -3.4703366206091394e-05 2.0837602306018034e-04 0.0000000000000000e+00  -4.7763119358425023e-06 1.6480246276600222e-04 0.0000000000000000e+00  -1.1133955106798337e-04 2.2572778249323411e-04 0.0000000000000000e+00  -5.6735739796461441e-05 1.7140616153021144e-04 0.0000000000000000e+00  -6.2024377381227787e-06 1.0293924293990017e-05 0.0000000000000000e+00  -8.9120784337600873e-07 2.5163334000651998e-05 0.0000000000000000e+00  -2.2972786401081166e-05 3.2024477153843770e-05 0.0000000000000000e+00  -1.6579227155257784e-05 5.4727860826634238e-05 0.0000000000000000e+00  3.2319927316062953e-06 6.3087197882244456e-06 0.0000000000000000e+00  1.4554772989778641e-05 1.3853224022177884e-05 0.0000000000000000e+00  0.0000000000000000e+00 0.0000000000000000e+00 0.0000000000000000e+00  0.0000000000000000e+00 0.0000000000000000e+00 0.0000000000000000e+00  -4.8090687040554512e-06 4.8063487393144194e-06 0.0000000000000000e+00  -3.9976682025514378e-05 9.3534665717563258e-05 0.0000000000000000e+00  -1.2333011352647635e-06 8.7138913565549942e-05 0.0000000000000000e+00  -2.5939729654231502e-05 1.2998149447099834e-04 0.0000000000000000e+00  2.1250433020950495e-05 3.6481615692677606e-05 0.0000000000000000e+00  -6.5652875587699527e-05 8.4959826269373151e-05 0.0000000000000000e+00  -8.1510812070132355e-05 1.2432720951788888e-04 0.0000000000000000e+00  3.7033857602741368e-05 1.5414128884683922e-04 0.0000000000000000e+00  -9.6762903268206345e-05 1.7142972415379966e-04 0.0000000000000000e+00  -1.5843218481130269e-05 1.5913300104566650e-05 0.0000000000000000e+00  0.0000000000000000e+00 0.0000000000000000e+00 0.0000000000000000e+00  4.7504033326928860e-07 -1.7299609301468124e-07 0.0000000000000000e+00  -3.9726453628585167e-05 6.1267358676481482e-05 0.0000000000000000e+00  6.5132669838008563e-06 5.1409656825736258e-05 0.0000000000000000e+00  7.2875316487728614e-06 1.2722910816991990e-04 0.0000000000000000e+00  6.7307754694243515e-06 9.2100180993012100e-07 0.0000000000000000e+00  1.8357150029814465e-06 -1.2435882889280751e-06 0.0000000000000000e+00  -6.1243358215970459e-05 1.3833912289113330e-04 0.0000000000000000e+00  -1.6389059293226496e-05 1.6628079177166435e-05 0.0000000000000000e+00  -4.8787802475088227e-06 6.4833048205620296e-06 0.0000000000000000e+00  -3.2518426864850131e-05 3.1240174833397446e-05 0.0000000000000000e+00  -4.9236146664479607e-05 5.3797624370424964e-05 0.0000000000000000e+00  3.2432698188909638e-05 1.0708002954237510e-04 0.0000000000000000e+00  2.7160809884075437e-05 6.7719020116214636e-05 0.0000000000000000e+00  0.0000000000000000e+00 0.0000000000000000e+00 0.0000000000000000e+00  0.0000000000000000e+00 0.0000000000000000e+00 0.0000000000000000e+00  -1.7391981943101706e-01 4.5405775129603441e-02 0.0000000000000000e+00  -1.9920554740318108e-01 2.1208733848022580e-02 0.0000000000000000e+00  -1.6194572607927465e-01 2.0119330965318483e-02 0.0000000000000000e+00  -1.7978809093884060e-01 -4.1077326947549994e-02 0.0000000000000000e+00  -1.9747271047480444e-01 -2.0476164721788218e-02 0.0000000000000000e+00  -1.5916097130791720e-01 -1.8959744627002131e-02 0.0000000000000000e+00  -1.1637288576148998e-01 6.5156478828064954e-02 0.0000000000000000e+00  -1.4522052521217935e-01 3.1308243817528038e-02 0.0000000000000000e+00  -8.5537067267886999e-02 2.0235750134382835e-02 0.0000000000000000e+00  7.0905169685880134e-02 7.6928601350311182e-02 0.0000000000000000e+00  7.8136421346573313e-03 7.1802204556042290e-02 0.0000000000000000e+00  -8.8942733162422086e-02 9.3541945998855749e-02 0.0000000000000000e+00  -9.1980546633000204e-02 9.9107458397195036e-02 0.0000000000000000e+00  -5.8948151120384998e-02 6.4186423538294013e-02 0.0000000000000000e+00  -7.8949210810731571e-02 9.3808322224083279e-02 0.0000000000000000e+00  1.2083848598984481e-01 6.6737009003927497e-02 0.0000000000000000e+00  -6.2846987373389701e-02 1.0162757161196069e-01 0.0000000000000000e+00  -1.1557559510423376e-01 -6.5318197500407266e-02 0.0000000000000000e+00  -1.4196820349478820e-01 -2.9510780029475624e-02 0.0000000000000000e+00  -8.6165470527981847e-02 -2.0320186527307830e-02 0.0000000000000000e+00  9.3254081548493140e-01 1.4322638582020181e-02 0.0000000000000000e+00  4.3294005540975783e-01 3.0526037334452638e-02 0.0000000000000000e+00  1.2100420978956642e-02 6.6696462268141896e-02 0.0000000000000000e+00  -1.3182873725022745e-01 6.6837374640603506e-02 0.0000000000000000e+00  0.0000000000000000e+00 0.0000000000000000e+00 0.0000000000000000e+00  -5.7047856857303271e-02 3.3211821368234279e-02 0.0000000000000000e+00  0.0000000000000000e+00 0.0000000000000000e+00 0.0000000000000000e+00  -5.7449478318416784e-02 -3.3426550888819573e-02 0.0000000000000000e+00  -5.9227450468775998e-02 -6.4663906220649950e-02 0.0000000000000000e+00  3.5684075618750477e-02 3.6051523573071544e-02 0.0000000000000000e+00  -3.1228973243834036e-02 5.8475106045193757e-02 0.0000000000000000e+00  -1.7325836033819025e-01 3.7890482696506793e-02 0.0000000000000000e+00  0.0000000000000000e+00 0.0000000000000000e+00 0.0000000000000000e+00  0.0000000000000000e+00 0.0000000000000000e+00 0.0000000000000000e+00  -1.1607918099979710e-01 4.9796047015005880e-03 0.0000000000000000e+00  -8.9721594935571330e-02 4.0913076694179245e-03 0.0000000000000000e+00  -1.5095136707669083e-02 8.4681495179000504e-03 0.0000000000000000e+00  -1.5318229457563197e-02 -8.5684670339581798e-03 0.0000000000000000e+00  0.0000000000000000e+00 0.0000000000000000e+00 0.0000000000000000e+00  0.0000000000000000e+00 0.0000000000000000e+00 0.0000000000000000e+00  4.0858841459387070e-02 3.7947705619252613e-02 0.0000000000000000e+00  -1.1700738182140756e-01 -4.7541491602706223e-03 0.0000000000000000e+00  -9.0529174224362505e-02 -3.9715784083108416e-03 0.0000000000000000e+00  -1.4378236987718956e-01 -6.0191724195926499e-02 0.0000000000000000e+00  6.3238892296057414e-01 2.8248196469103964e-02 0.0000000000000000e+00  0.0000000000000000e+00 0.0000000000000000e+00 0.0000000000000000e+00  7.0227687277383588e-01 2.4874544916556829e-02 0.0000000000000000e+00  3.6749115388030956e-01 2.0086917051256155e-02 0.0000000000000000e+00  -1.7631730009078356e-01 9.4576099544336541e-03 0.0000000000000000e+00  -1.7664392074919771e-01 -9.1461403731089679e-03 0.0000000000000000e+00  -5.5537718795410869e-02 7.1606152372757637e-02 0.0000000000000000e+00  -6.5079517725046568e-02 6.3341858394311223e-02 0.0000000000000000e+00  1.0708753862574731e-01 1.1095358337992932e-02 0.0000000000000000e+00  0.0000000000000000e+00 0.0000000000000000e+00 0.0000000000000000e+00  7.3943668154030162e-01 2.3241389702174417e-02 0.0000000000000000e+00  -9.3692894517633005e-02 7.1682613743345863e-03 0.0000000000000000e+00  -1.6411328291918106e-01 -5.5167799905441817e-03 0.0000000000000000e+00  -2.3461558416207318e-01 -1.7641985718830834e-02 0.0000000000000000e+00  -9.5082100727815991e-02 -7.3903048045187159e-03 0.0000000000000000e+00  -2.1516522891445333e-01 -2.6017272752171305e-02 0.0000000000000000e+00  -7.5493081499795681e-02 7.9815231895423461e-03 0.0000000000000000e+00  -7.5416732052279695e-02 -7.8469540571183410e-03 0.0000000000000000e+00  -3.6805940127446299e-02 6.8668919718856743e-03 0.0000000000000000e+00  -3.7268056904807889e-02 -6.8858715685228130e-03 0.0000000000000000e+00  </DataArray> 
</PointData> 
</Piece>
</UnstructuredGrid>
</VTKFile>