<?xml version="1.0"?>
<VTKFile type="UnstructuredGrid"  version="0.1"  >
<UnstructuredGrid>
<Piece  NumberOfPoints="104" NumberOfCells="167">
<Points>
<DataArray  type="Float64"  NumberOfComponents="3"  format="ascii">0.7179098792074922 0.09515556231434774 0  0.6930564374308674 0.1341308449452096 0  0.6808979566904864 0.09264351137968369 0  0.883612004374276 0.2044999257790265 0  0.941405262964606 0.2275541950732263 0  0.8724873572796065 0.2505182730032114 0  0.6580228992389956 0.1177787934340178 0  1.122434100544716 0.41 0  1.068894913355815 0.339699543595371 0  1.154144739340952 0.3428674566149401 0  0.9084404882614506 0.2892191224003848 0  1.215451113850732 0.2103314603357224 0  1.249863529963017 0.2672258935273379 0  1.176331347569866 0.2754551993599315 0  0.7101078070491313 0.04593780015520291 0  0.7273492824638629 0.1308306999820452 0  0.6699818017210338 0.05718888729500279 0  0.9882218810956305 0.41 0  0.9246101326886647 0.41 0  0.9513232956593279 0.344238796639219 0  0.8632198139519631 0.41 0  0.882513772872486 0.3520608410452225 0  0.8202234869765325 0.364591028094237 0  0.7991030424147842 0.1996369747921017 0  0.755404159289092 0.1590232243285952 0  0.7509674852354215 0.2077605643765068 0  0.8502354418587501 0.1560244879407868 0  0.9215858179635137 0.1737964996919513 0  0.9080221499231149 0.1220333110997775 0  1.122434100542598 0 0  1.070453094842314 0.06960241275844714 0  1.154904552424504 0.06969164993518225 0  1.017753695734191 0.3624508760213758 0  0.8363367911675036 0.3257327955680793 0  1.05413544556068 0.41 0  0.6244559818022579 0.1024805481876779 0  0.6321311710823254 0.06153785161297727 0  0.595034110037278 0.08371649311769892 0  1.002160515162412 0.1007971030886586 0  1.051646085559005 0.1501053523947661 0  0.7970763259525799 0.1414049767778835 0  0.8757744372027163 0.0680967899541615 0  0.9457932773848412 0.0667989600995588 0  1.054135445558498 0 0  0.7467958595648856 0 0  0.8039733463919316 0 0  0.7693776708684824 0.05639711714283061 0  0.9246101326867038 0 0  0.9882218810934433 0 0  1.005346589798493 0.3067901807747939 0  1.048577150438126 0.2582185237349715 0  1.112767688411364 0.1251261100534626 0  1.171970583870903 0.1546087622866204 0  1.342519516048286 0.41 0  1.266535089881505 0.41 0  1.274599158297837 0.3398495556128484 0  0.8625643833134949 0.2947679371372982 0  1.21281999103096 0.3139909211204517 0  1.019068245937061 0.0469337202247656 0  0.9665635209117881 0.1540989494284837 0  1.008472627814504 0.204999999999892 0  1.111528583326901 0.2818863422907276 0  0.8280582783289157 0.04600943632764167 0  0.7467958595662458 0.41 0  0.6916151138480078 0.41 0  0.7140255670996881 0.3646166311524474 0  0.763519512252238 0.1106765968361548 0  1.146963556870385 0.2220662070926035 0  0.7666101362390253 0.3578469139891653 0  0.7236859362722395 0.2517828338101294 0  0.7667165827043843 0.2524551100397078 0  1.084668006184735 0.2128250251286081 0  0.814691562998009 0.09619193426127341 0  0.7613343746328384 0.3026779105476945 0  0.8174223541212756 0.2698453306575623 0  0.7176052736190859 0.2162836958912044 0  0.7959218455617475 0.3268864684847159 0  1.193204177143353 0.41 0  1.193204177141305 0 0  0.5932743238853959 0.04945528001359441 0  0.6649882407551387 0.02261378243973851 0  0.8039733463934788 0.41 0  0.5869673343216626 0 0  0.619281841121555 0.02915265998465505 0  1.118750868833027 0.1743068070907049 0  0.9108122465318981 0.04113381345596949 0  0.953518183350995 0.1113177413147439 0  0.7293997039068749 0.1878315768275717 0  0.860027688655414 0.1096039208573359 0  0.8632198139502143 0 0  0.7294932489647475 0.2840789881590486 0  1.221368790720609 0.3632125781021275 0  0.6641520523959832 0.1503720468916702 0  0.9607107278835494 0.2834185756442621 0  0.6527022231295108 0.08569477788831682 0  0.6916151138468254 0 0  0.8438935925208596 0.2159584135336446 0  0.7014764931779993 0.1925000000000107 0  0.6711932754123612 0.1788117674793375 0  0.6915000583673684 0.1646401469634124 0  0.7279457694224267 0.3237962213587685 0  0.9950305598379717 0.2553450661633512 0  0.6383613676634521 0 0  0.7206274800156242 0.161583396443773 0  </DataArray>
</Points>
<Cells>
<DataArray  type="UInt32"  Name="connectivity"  format="ascii">0 1 2  3 4 5  1 6 2  7 8 9  10 4 5  11 12 13  0 14 2  0 1 15  16 14 2  17 18 19  20 21 22  23 24 25  3 26 27  28 26 27  29 30 31  17 19 32  33 21 22  7 34 8  35 36 37  38 30 39  23 24 40  10 19 21  28 41 42  43 29 30  44 45 46  47 48 42  49 8 50  51 31 52  51 30 39  53 54 55  10 21 56  0 46 14  57 12 13  48 42 58  38 59 39  60 59 39  61 8 50  45 46 62  60 4 59  63 64 65  0 46 66  11 67 13  63 65 68  61 8 9  23 26 40  49 19 32  69 25 70  60 71 50  72 46 62  73 74 70  69 25 75  60 71 39  51 30 31  23 74 70  4 59 27  73 74 76  61 71 50  38 42 58  77 7 9  29 78 31  79 36 37  16 14 80  44 46 14  61 71 67  81 63 68  33 74 76  72 46 66  82 79 83  72 41 62  23 25 70  71 39 84  41 42 85  18 19 21  51 39 84  28 42 86  24 25 87  72 41 88  47 42 85  89 41 62  69 70 90  72 26 40  57 55 12  77 9 91  20 81 22  1 6 92  10 19 93  33 21 56  35 6 94  95 44 14  23 74 96  23 26 96  97 98 99  36 83 80  95 14 80  89 41 85  49 19 93  28 26 88  33 74 56  18 20 21  3 26 96  72 26 88  11 67 52  16 36 80  24 66 15  28 41 88  0 66 15  57 9 91  3 4 27  45 89 62  73 70 90  81 68 22  34 8 32  38 42 86  49 8 32  65 68 100  98 92 99  38 30 58  43 30 58  10 4 93  67 52 84  89 47 85  73 68 100  60 4 101  6 2 94  34 17 32  61 9 13  48 43 58  28 59 27  38 59 86  82 102 83  28 59 86  57 9 13  97 103 99  102 95 80  54 77 91  24 66 40  49 50 101  72 66 40  35 36 94  1 92 99  60 50 101  73 68 76  1 103 15  1 103 99  24 103 15  97 75 87  24 103 87  54 55 91  74 5 96  71 67 84  97 103 87  4 93 101  79 36 83  57 55 91  61 67 13  16 36 94  74 5 56  25 75 87  51 52 84  16 2 94  102 83 80  49 93 101  10 5 56  68 22 76  3 5 96  33 22 76  73 100 90  </DataArray>
<DataArray  type="UInt32"  Name="offsets"  format="ascii">3 6 9 12 15 18 21 24 27 30 33 36 39 42 45 48 51 54 57 60 63 66 69 72 75 78 81 84 87 90 93 96 99 102 105 108 111 114 117 120 123 126 129 132 135 138 141 144 147 150 153 156 159 162 165 168 171 174 177 180 183 186 189 192 195 198 201 204 207 210 213 216 219 222 225 228 231 234 237 240 243 246 249 252 255 258 261 264 267 270 273 276 279 282 285 288 291 294 297 300 303 306 309 312 315 318 321 324 327 330 333 336 339 342 345 348 351 354 357 360 363 366 369 372 375 378 381 384 387 390 393 396 399 402 405 408 411 414 417 420 423 426 429 432 435 438 441 444 447 450 453 456 459 462 465 468 471 474 477 480 483 486 489 492 495 498 501 </DataArray>
<DataArray  type="UInt8"  Name="types"  format="ascii">5 5 5 5 5 5 5 5 5 5 5 5 5 5 5 5 5 5 5 5 5 5 5 5 5 5 5 5 5 5 5 5 5 5 5 5 5 5 5 5 5 5 5 5 5 5 5 5 5 5 5 5 5 5 5 5 5 5 5 5 5 5 5 5 5 5 5 5 5 5 5 5 5 5 5 5 5 5 5 5 5 5 5 5 5 5 5 5 5 5 5 5 5 5 5 5 5 5 5 5 5 5 5 5 5 5 5 5 5 5 5 5 5 5 5 5 5 5 5 5 5 5 5 5 5 5 5 5 5 5 5 5 5 5 5 5 5 5 5 5 5 5 5 5 5 5 5 5 5 5 5 5 5 5 5 5 5 5 5 5 5 5 5 5 5 5 5 </DataArray>
</Cells>
<PointData  Vectors="f_43-0"> 
<DataArray  type="Float64"  Name="f_43-0"  NumberOfComponents="3" format="ascii">2.4968635764207372e+00 9.1406951644121479e-02 0.0000000000000000e+00  2.9032283487989781e+00 1.8311733338462660e-01 0.0000000000000000e+00  2.5238459413270551e+00 1.2941442149116389e-01 0.0000000000000000e+00  1.3997592515909068e+00 -2.9566125589274997e-03 0.0000000000000000e+00  1.9664747410118826e+00 -1.8858557781079369e-02 0.0000000000000000e+00  2.6714666970857364e+00 -3.4266445086395897e-02 0.0000000000000000e+00  2.8441361747931970e+00 2.1019790127944429e-01 0.0000000000000000e+00  0.0000000000000000e+00 0.0000000000000000e+00 0.0000000000000000e+00  1.9417936887598011e+00 4.6896466036160857e-02 0.0000000000000000e+00  1.9137135671816661e+00 3.4929828744026656e-02 0.0000000000000000e+00  2.6223814278519226e+00 3.3434441086356383e-02 0.0000000000000000e+00  1.6551123239237318e+00 -5.7089983140610763e-04 0.0000000000000000e+00  2.4677078783313955e+00 7.3709303341447149e-03 0.0000000000000000e+00  2.5426483237073141e+00 2.3310501202831974e-02 0.0000000000000000e+00  1.4686363773291411e+00 5.8257199478035917e-03 0.0000000000000000e+00  2.8453223513912431e+00 1.2620731584661263e-01 0.0000000000000000e+00  1.8732060695902284e+00 7.6401975195927757e-02 0.0000000000000000e+00  0.0000000000000000e+00 0.0000000000000000e+00 0.0000000000000000e+00  0.0000000000000000e+00 0.0000000000000000e+00 0.0000000000000000e+00  1.8633945154964557e+00 4.9707571943908291e-02 0.0000000000000000e+00  0.0000000000000000e+00 0.0000000000000000e+00 0.0000000000000000e+00  1.7009325373077737e+00 3.7916143099782106e-02 0.0000000000000000e+00  1.3870407399380389e+00 2.6048678115638022e-02 0.0000000000000000e+00  9.4788626645477747e-01 2.6700776924776654e-02 0.0000000000000000e+00  2.5426587933190286e+00 1.0534306020724341e-01 0.0000000000000000e+00  9.0754754451975794e-01 -2.7610654292932055e-02 0.0000000000000000e+00  2.5811148398817871e+00 2.5456842914254343e-02 0.0000000000000000e+00  1.8714380446715335e+00 1.5218615381750684e-02 0.0000000000000000e+00  2.6539646604027540e+00 -2.9091706283890351e-02 0.0000000000000000e+00  0.0000000000000000e+00 0.0000000000000000e+00 0.0000000000000000e+00  1.9527570001050221e+00 -3.9664711000251464e-02 0.0000000000000000e+00  1.9573915051826807e+00 -3.3909354153333120e-02 0.0000000000000000e+00  1.5184342889323481e+00 3.1801140883207069e-02 0.0000000000000000e+00  2.2453712260140843e+00 1.8528342153486480e-02 0.0000000000000000e+00  0.0000000000000000e+00 0.0000000000000000e+00 0.0000000000000000e+00  2.7553061556491856e+00 2.3832592321432378e-01 0.0000000000000000e+00  2.0985122042752486e+00 1.3026754996223533e-01 0.0000000000000000e+00  2.5811388978683656e+00 2.3472593927424917e-01 0.0000000000000000e+00  2.4047927723040980e+00 -4.7703417570162401e-02 0.0000000000000000e+00  2.4316706758593969e+00 -3.8012464529152937e-03 0.0000000000000000e+00  2.8193582182354677e+00 5.0884104719226886e-02 0.0000000000000000e+00  1.9425425725215779e+00 -4.4505995879818815e-02 0.0000000000000000e+00  1.9083988060278243e+00 -4.5982720300338301e-02 0.0000000000000000e+00  0.0000000000000000e+00 0.0000000000000000e+00 0.0000000000000000e+00  0.0000000000000000e+00 0.0000000000000000e+00 0.0000000000000000e+00  0.0000000000000000e+00 0.0000000000000000e+00 0.0000000000000000e+00  1.7290190119646223e+00 -1.7526399936878021e-02 0.0000000000000000e+00  0.0000000000000000e+00 0.0000000000000000e+00 0.0000000000000000e+00  0.0000000000000000e+00 0.0000000000000000e+00 0.0000000000000000e+00  2.3784181040981807e+00 4.0765777351881839e-02 0.0000000000000000e+00  2.5984806314240707e+00 1.0166265238230861e-02 0.0000000000000000e+00  2.5378385472084397e+00 -2.6360249330723239e-02 0.0000000000000000e+00  2.2251434466226874e+00 1.1302128042742459e-02 0.0000000000000000e+00  0.0000000000000000e+00 0.0000000000000000e+00 0.0000000000000000e+00  0.0000000000000000e+00 0.0000000000000000e+00 0.0000000000000000e+00  1.9598173911665953e+00 2.4297340492998212e-02 0.0000000000000000e+00  2.6060779896854496e+00 1.8638171834800769e-02 0.0000000000000000e+00  2.2899506987704528e+00 3.2648464717311212e-02 0.0000000000000000e+00  1.5532603106437708e+00 -3.3191571875092155e-02 0.0000000000000000e+00  2.4759827922318407e+00 -5.4068495463552258e-03 0.0000000000000000e+00  1.4995701293902279e+00 2.8680243694366963e-03 0.0000000000000000e+00  2.5875785654166035e+00 3.3882189563070493e-02 0.0000000000000000e+00  1.4004457409598288e+00 -3.2101712031175844e-02 0.0000000000000000e+00  0.0000000000000000e+00 0.0000000000000000e+00 0.0000000000000000e+00  0.0000000000000000e+00 0.0000000000000000e+00 0.0000000000000000e+00  1.4518863471223795e+00 -1.8637333005211532e-02 0.0000000000000000e+00  2.6565724020687052e+00 4.6259672447609673e-02 0.0000000000000000e+00  1.8622705010768661e+00 -1.3179165213953542e-02 0.0000000000000000e+00  1.6167858028750950e+00 5.5752521089885215e-03 0.0000000000000000e+00  2.7794151417181641e+00 -1.5700230985404234e-01 0.0000000000000000e+00  2.8214011618581778e+00 -9.9687519207689188e-02 0.0000000000000000e+00  1.6376106854868053e+00 -6.7156758499334786e-03 0.0000000000000000e+00  2.4125070922201988e+00 -3.3625345955863115e-03 0.0000000000000000e+00  2.6187307860571551e+00 -6.1658607132788271e-02 0.0000000000000000e+00  2.8573007356312479e+00 -3.6247613605341636e-02 0.0000000000000000e+00  1.2556812171739629e+00 -9.6951480304691015e-02 0.0000000000000000e+00  2.2411848170607493e+00 -7.8149789706062067e-03 0.0000000000000000e+00  0.0000000000000000e+00 0.0000000000000000e+00 0.0000000000000000e+00  0.0000000000000000e+00 0.0000000000000000e+00 0.0000000000000000e+00  1.9032309591206165e+00 1.3145968579276612e-01 0.0000000000000000e+00  6.5688892860532588e-01 8.8250996368508796e-04 0.0000000000000000e+00  0.0000000000000000e+00 0.0000000000000000e+00 0.0000000000000000e+00  0.0000000000000000e+00 0.0000000000000000e+00 0.0000000000000000e+00  9.7140157843664665e-01 3.2398084393400105e-02 0.0000000000000000e+00  1.8383397897486704e+00 1.5541682417678854e-02 0.0000000000000000e+00  1.3133878998165416e+00 -3.3944001977377430e-02 0.0000000000000000e+00  2.5314121564838690e+00 -3.3747879851581328e-02 0.0000000000000000e+00  1.1361033269406293e+00 7.1766008727903952e-02 0.0000000000000000e+00  2.5751241441349095e+00 -2.2933704588320090e-02 0.0000000000000000e+00  0.0000000000000000e+00 0.0000000000000000e+00 0.0000000000000000e+00  2.8060196866593543e+00 -1.2099272681908248e-01 0.0000000000000000e+00  1.6479594218766616e+00 1.8457327606941187e-02 0.0000000000000000e+00  2.7188905438170368e+00 2.4991852081757307e-01 0.0000000000000000e+00  2.6499710884720593e+00 2.9514491554541843e-02 0.0000000000000000e+00  2.4840720163272767e+00 1.5619210956551835e-01 0.0000000000000000e+00  0.0000000000000000e+00 0.0000000000000000e+00 0.0000000000000000e+00  1.5096108689701506e+00 -2.7380995590643820e-02 0.0000000000000000e+00  8.1704039104626136e-01 6.0944217708959636e-02 0.0000000000000000e+00  1.3983271648228937e+00 1.6351468359440519e-01 0.0000000000000000e+00  2.2235748377475297e+00 1.8270479526317290e-01 0.0000000000000000e+00  2.3500505375440586e+00 -7.2522078497743378e-02 0.0000000000000000e+00  2.6076126636923043e+00 1.3236196255746553e-02 0.0000000000000000e+00  0.0000000000000000e+00 0.0000000000000000e+00 0.0000000000000000e+00  2.4230171135439678e+00 1.4765437971062223e-01 0.0000000000000000e+00  </DataArray> 
</PointData> 
</Piece>
</UnstructuredGrid>
</VTKFile>