<?xml version="1.0"?>
<VTKFile type="UnstructuredGrid"  version="0.1"  >
<UnstructuredGrid>
<Piece  NumberOfPoints="105" NumberOfCells="169">
<Points>
<DataArray  type="Float64"  NumberOfComponents="3"  format="ascii">0.3946216884789568 0.2000000000001512 0  0.4019979587101454 0.1959834479682427 0  0.3946216884797873 0.1943028057712679 0  0.3871533862424271 0.1959250838464788 0  0.4058241418354857 0.19 0  0.3983558395983636 0.19 0  0.3908875373612097 0.19 0  0.4543681063767173 0.1676928600783137 0  0.4456512193123995 0.1563006663224736 0  0.4634554111966759 0.156587601803556 0  0.5019588293971892 0.1448324961346233 0  0.5202014138752529 0.1378594850692911 0  0.5186581766834214 0.1505504706653799 0  0.5461387848636305 0.1174764669537213 0  0.5361687701469152 0.1326608756097835 0  0.5197325460646487 0.1214075108099659 0  0.4953767731769588 0.1188694761679334 0  0.506255180108809 0.1312411055441881 0  0.4552963513014363 0.145444894720247 0  0.4735622322288027 0.1489594066447112 0  0.430606184336534 0.1007106891413896 0  0.4121197549442807 0.08306196356607598 0  0.4341927647953854 0.06945916972568383 0  0.5257318662464058 0.1055286630332995 0  0.5082652246192162 0.1565876018036352 0  0.4474989647342493 0.1297107067022473 0  0.4322147276797816 0.1208036360979848 0  0.4500639844785546 0.1038268107662773 0  0.4538259418580106 0.08513891830322172 0  0.4582183089687113 0.05889916916817712 0  0.4771650921173667 0.0345682490428623 0  0.4786311469264966 0.07193451402067624 0  0.3871533862426517 0.1622083790690482 0  0.4004709881341373 0.156587601801244 0  0.383930166391577 0.149077512173999 0  0.464700493006123 0.1337957577261608 0  0.5869673343216626 0 0  0.5932743238853959 0.04945528001359441 0  0.5584639495217296 0.03508113340585634 0  0.5081447438790341 0.05715290841304708 0  0.4614662289214904 0.1185262515411474 0  0.505337249077668 0.1024328896935337 0  0.431963199665431 0.1622083790702696 0  0.4308549333301598 0.1502035540486048 0  0.4116738586544235 0.1041859387663523 0  0.4900906149793102 0.1565876018036352 0  0.4767730130879849 0.1622083790703084 0  0.5443827500055026 0.09366669778791233 0  0.3871533862426518 0.1004535961197204 0  0.4048211958526272 0.1196730942586016 0  0.387533158164613 0.1229770158841918 0  0.5390824052225628 0.06744833187951048 0  0.5212239823753633 0.08492404393226735 0  0.5215828265105156 0.1622083790703317 0  0.5349004284018322 0.1565876018036672 0  0.4433053055141081 0 0  0.4410855102972552 0.03751680874040594 0  0.3969581968524311 0.1447077887708589 0  0.5666194772443838 0.07265723178580256 0  0.4767730130879849 0.1004582016456482 0  0.4895008759286886 0 0  0.4095582929540822 0.1690366057399949 0  0.3975186920292402 0.1660535232065472 0  0.4096953638692593 0.1593611747926069 0  0.4020899907169248 0.1826726487248222 0  0.4215978938789503 0.1660535232066034 0  0.4777970859082697 0.1375242924454789 0  0.4423561517299195 0.1449296933988149 0  0.3871183818181629 0.1813492091082587 0  0.3946170212231889 0.1837683952945248 0  0.442117717086971 0.1672874945454806 0  0.477253129614999 0.1229170029909243 0  0.4990943684003321 0.08379643703559929 0  0.4143465137990051 0.05322961011747924 0  0.4666592720111949 0.1673206601298049 0  0.4870209690086496 0.1445552225959656 0  0.5373680609405097 0 0  0.5691769360607744 0.103623921999164 0  0.3946216884797873 0.1755365127550408 0  0.4200158654557485 0.1549967047228304 0  0.5312943323845036 0.1447479119997123 0  0.4095582929540587 0.1783322890925096 0  0.402719283013572 0.174362078603009 0  0.4163973028945601 0.1743620786030245 0  0.3870163828938027 0.1711802904735331 0  0.5312379346123596 0.03921294785544463 0  0.5656709189996393 0.1218263852353965 0  0.3881774741414789 0.1375237980955535 0  0.4007921484923099 0.1334520017217418 0  0.4244948974283196 0.1755365127551117 0  0.4170265951911974 0.1826726487248186 0  0.4094216635085727 0.1459162970206419 0  0.4171240435965357 0.130709948522703 0  0.4476321386943704 0.1742462878721009 0  0.4319720988215174 0.1712601408791398 0  0.4095582929540592 0.1849109489303113 0  0.4132924440726327 0.19 0  0.510662702819522 0.02256181955995177 0  0.4214619365707062 0.1433505759463181 0  0.4908029823839455 0.1335072113564198 0  0.4767269250530047 0.1713973971258736 0  0.4315229872852132 0.1375769537565516 0  0.5448392573395288 0.1456266733529302 0  0.5536582001352554 0.1343709232030346 0  0.4191531770983273 0.1155832460350826 0  </DataArray>
</Points>
<Cells>
<DataArray  type="UInt32"  Name="connectivity"  format="ascii">0 1 2  0 3 2  4 5 1  6 3 2  5 1 2  5 6 2  7 8 9  10 11 12  13 14 15  16 17 15  18 9 19  20 21 22  23 13 15  10 24 12  25 26 27  20 28 22  29 30 31  32 33 34  10 11 17  18 19 35  36 37 38  39 30 31  40 25 27  16 15 41  42 8 43  18 8 9  20 21 44  10 45 24  46 45 19  23 13 47  48 49 44  48 21 44  48 49 50  39 51 52  53 54 12  55 56 30  33 34 57  51 38 58  59 40 27  29 56 22  55 60 30  61 62 63  4 5 64  61 65 63  20 28 27  37 38 58  66 19 35  8 43 67  6 68 69  20 26 27  23 15 41  59 16 41  7 8 70  59 40 71  39 72 52  73 56 22  7 9 74  59 16 71  32 33 62  45 19 75  76 36 38  59 72 41  59 28 27  77 47 58  39 72 31  78 64 69  42 79 65  59 28 31  42 8 70  54 12 80  61 81 82  29 56 30  61 81 83  61 82 62  78 68 84  46 9 74  5 6 69  33 62 63  61 83 65  59 72 31  39 51 85  77 13 47  79 65 63  51 38 85  78 64 82  42 79 43  77 13 86  87 50 88  5 64 69  89 90 83  51 47 58  76 38 85  78 62 84  91 92 88  7 93 70  89 65 94  46 9 19  4 64 95  78 68 69  96 90 95  29 28 22  60 76 97  76 85 97  53 24 12  91 33 63  91 79 63  18 25 35  42 70 94  32 62 84  91 79 98  66 71 35  29 28 31  66 71 99  73 21 22  46 74 100  42 65 94  10 17 99  101 25 26  23 41 52  49 50 88  78 82 62  101 92 26  89 83 65  18 25 67  81 64 82  81 90 83  91 33 57  79 43 98  96 4 95  102 14 103  91 92 98  81 64 95  101 25 67  81 90 95  49 92 88  18 8 67  40 71 35  87 34 57  23 47 52  11 14 15  72 41 52  11 17 15  16 71 99  101 92 98  102 14 80  10 45 75  40 25 35  39 30 97  11 14 80  101 43 67  16 17 99  102 54 80  66 19 75  91 88 57  51 47 52  87 88 57  13 14 103  39 85 97  11 12 80  49 44 104  13 86 103  49 92 104  10 99 75  20 44 104  60 30 97  92 26 104  66 99 75  20 26 104  101 43 98  </DataArray>
<DataArray  type="UInt32"  Name="offsets"  format="ascii">3 6 9 12 15 18 21 24 27 30 33 36 39 42 45 48 51 54 57 60 63 66 69 72 75 78 81 84 87 90 93 96 99 102 105 108 111 114 117 120 123 126 129 132 135 138 141 144 147 150 153 156 159 162 165 168 171 174 177 180 183 186 189 192 195 198 201 204 207 210 213 216 219 222 225 228 231 234 237 240 243 246 249 252 255 258 261 264 267 270 273 276 279 282 285 288 291 294 297 300 303 306 309 312 315 318 321 324 327 330 333 336 339 342 345 348 351 354 357 360 363 366 369 372 375 378 381 384 387 390 393 396 399 402 405 408 411 414 417 420 423 426 429 432 435 438 441 444 447 450 453 456 459 462 465 468 471 474 477 480 483 486 489 492 495 498 501 504 507 </DataArray>
<DataArray  type="UInt8"  Name="types"  format="ascii">5 5 5 5 5 5 5 5 5 5 5 5 5 5 5 5 5 5 5 5 5 5 5 5 5 5 5 5 5 5 5 5 5 5 5 5 5 5 5 5 5 5 5 5 5 5 5 5 5 5 5 5 5 5 5 5 5 5 5 5 5 5 5 5 5 5 5 5 5 5 5 5 5 5 5 5 5 5 5 5 5 5 5 5 5 5 5 5 5 5 5 5 5 5 5 5 5 5 5 5 5 5 5 5 5 5 5 5 5 5 5 5 5 5 5 5 5 5 5 5 5 5 5 5 5 5 5 5 5 5 5 5 5 5 5 5 5 5 5 5 5 5 5 5 5 5 5 5 5 5 5 5 5 5 5 5 5 5 5 5 5 5 5 5 5 5 5 5 5 </DataArray>
</Cells>
<PointData  Vectors="f_43-0"> 
<DataArray  type="Float64"  Name="f_43-0"  NumberOfComponents="3" format="ascii">-1.1528168989620560e-04 7.4027982023074264e-04 0.0000000000000000e+00  -5.9372451259183585e-05 8.4889953581825941e-04 0.0000000000000000e+00  -3.2244204299474329e-05 7.3544832989331794e-04 0.0000000000000000e+00  -5.3506585517884569e-05 6.3028971777063050e-04 0.0000000000000000e+00  3.5024219159931572e-05 9.0666984732920954e-04 0.0000000000000000e+00  3.2286985953563797e-05 7.8953225870804773e-04 0.0000000000000000e+00  2.8968560393494641e-05 6.7966109941190549e-04 0.0000000000000000e+00  4.7098100879200760e-01 1.5558573056803113e-01 0.0000000000000000e+00  1.1222892208116659e+00 2.5752449683446393e-01 0.0000000000000000e+00  1.2597557731779168e+00 2.6465400773737086e-01 0.0000000000000000e+00  2.1208370394516094e+00 2.9430295213065549e-01 0.0000000000000000e+00  2.3715967075163005e+00 2.7227578620268050e-01 0.0000000000000000e+00  1.9327074144808394e+00 2.4407852582316578e-01 0.0000000000000000e+00  2.5051841397877048e+00 2.1045847328055864e-01 0.0000000000000000e+00  2.4652663231187808e+00 2.4211157242733283e-01 0.0000000000000000e+00  2.5476514753112074e+00 2.6362935253432074e-01 0.0000000000000000e+00  2.5964097918377780e+00 3.0443532939002760e-01 0.0000000000000000e+00  2.4945732402726541e+00 2.9990341443353102e-01 0.0000000000000000e+00  1.8997704702317781e+00 3.4384008027458779e-01 0.0000000000000000e+00  1.8000147555625938e+00 3.1508759353583105e-01 0.0000000000000000e+00  2.7022929525522010e+00 3.1474032856238010e-01 0.0000000000000000e+00  2.5888301373481157e+00 2.5236586576557396e-01 0.0000000000000000e+00  2.3491275524474897e+00 2.1223068700112924e-01 0.0000000000000000e+00  2.4736374625267601e+00 2.2232503326785930e-01 0.0000000000000000e+00  1.5805413553077183e+00 2.3045306346490566e-01 0.0000000000000000e+00  2.5689637820715716e+00 3.9167433589825884e-01 0.0000000000000000e+00  2.7469119413536540e+00 3.8012298786166832e-01 0.0000000000000000e+00  2.6556579162218950e+00 3.1639851015471782e-01 0.0000000000000000e+00  2.4798582069636814e+00 2.6074449615925205e-01 0.0000000000000000e+00  2.1422778156327542e+00 1.8096878739597536e-01 0.0000000000000000e+00  1.5830966014886971e+00 8.9930423138782592e-02 0.0000000000000000e+00  2.2544602260802620e+00 2.0352027963036337e-01 0.0000000000000000e+00  1.9215806209462064e-01 8.1579819093637915e-02 0.0000000000000000e+00  6.6949034461306223e-01 1.6631374061493223e-01 0.0000000000000000e+00  1.0684796246093289e+00 1.9261363915625662e-01 0.0000000000000000e+00  2.4489810614298890e+00 3.7283780753776696e-01 0.0000000000000000e+00  0.0000000000000000e+00 0.0000000000000000e+00 0.0000000000000000e+00  1.6616075859600450e+00 4.9043266868642584e-02 0.0000000000000000e+00  1.3384447971838855e+00 3.5432396763584423e-02 0.0000000000000000e+00  1.9948871274760007e+00 1.4305222848342913e-01 0.0000000000000000e+00  2.6847591646985363e+00 3.5822352903871768e-01 0.0000000000000000e+00  2.4924749962092609e+00 2.4779420770977395e-01 0.0000000000000000e+00  5.9192766888667736e-01 1.8240616878977017e-01 0.0000000000000000e+00  1.4171727285832674e+00 2.9378480721964451e-01 0.0000000000000000e+00  2.8036688158696923e+00 3.1511701365444417e-01 0.0000000000000000e+00  1.4630761256177875e+00 2.5114247875520423e-01 0.0000000000000000e+00  1.0153259309504121e+00 2.1405934738519478e-01 0.0000000000000000e+00  2.3391367204465028e+00 1.7532075662712118e-01 0.0000000000000000e+00  2.8481569102226665e+00 2.7493682763623717e-01 0.0000000000000000e+00  2.8180000252985300e+00 3.6012864568768543e-01 0.0000000000000000e+00  2.7798201818222488e+00 3.3449606971138446e-01 0.0000000000000000e+00  2.0626606559097223e+00 1.3030529710364550e-01 0.0000000000000000e+00  2.3019192247296032e+00 1.8657047154951220e-01 0.0000000000000000e+00  1.3605068636259805e+00 1.7825289105688177e-01 0.0000000000000000e+00  1.7221626938120502e+00 1.9388133433093516e-01 0.0000000000000000e+00  0.0000000000000000e+00 0.0000000000000000e+00 0.0000000000000000e+00  1.8151002036018085e+00 1.2312310701173514e-01 0.0000000000000000e+00  1.5311366931076766e+00 2.6771568834722137e-01 0.0000000000000000e+00  2.0814067103262741e+00 1.1413762275885768e-01 0.0000000000000000e+00  2.5484240044439552e+00 2.8285337736522875e-01 0.0000000000000000e+00  0.0000000000000000e+00 0.0000000000000000e+00 0.0000000000000000e+00  -1.9926020398760911e-03 7.9311128310745854e-02 0.0000000000000000e+00  5.8151442406670500e-02 7.6583567287256835e-02 0.0000000000000000e+00  5.6724321861698246e-01 1.6340277717395635e-01 0.0000000000000000e+00  -3.1090737680723185e-01 5.6974282235007553e-03 0.0000000000000000e+00  2.5706648425032164e-01 1.2748047207739929e-01 0.0000000000000000e+00  2.3415448229971085e+00 3.5111576249610399e-01 0.0000000000000000e+00  1.8568475170573577e+00 3.4518069139126650e-01 0.0000000000000000e+00  -3.4928202625544574e-01 7.3770251778421711e-04 0.0000000000000000e+00  -2.9624127580596987e-01 1.5892624910202563e-03 0.0000000000000000e+00  3.7630028559740247e-01 1.4767456424816638e-01 0.0000000000000000e+00  2.6225965373354807e+00 3.4381224890675843e-01 0.0000000000000000e+00  2.3405351046589264e+00 2.1147129735632700e-01 0.0000000000000000e+00  2.1785562211867902e+00 1.7799886127180775e-01 0.0000000000000000e+00  6.1181325841792644e-01 1.6633076734769997e-01 0.0000000000000000e+00  2.0855086143964354e+00 3.1919536269141624e-01 0.0000000000000000e+00  0.0000000000000000e+00 0.0000000000000000e+00 0.0000000000000000e+00  2.3861814350122814e+00 1.5902598295477657e-01 0.0000000000000000e+00  -3.1247760292136878e-01 1.8828850333335402e-02 0.0000000000000000e+00  9.7232399828160010e-01 2.2925860583325361e-01 0.0000000000000000e+00  2.1946692656472098e+00 2.4088234637410777e-01 0.0000000000000000e+00  -2.9781610998474306e-01 2.3592837310427609e-02 0.0000000000000000e+00  -2.4975093776962259e-01 3.4432181628148477e-02 0.0000000000000000e+00  -1.7135371034164204e-01 5.2658494312641281e-02 0.0000000000000000e+00  -2.2598352985534609e-01 2.6275283880756232e-02 0.0000000000000000e+00  1.5390982002402198e+00 6.9886377553530346e-02 0.0000000000000000e+00  2.4916325237987342e+00 1.8787321220443104e-01 0.0000000000000000e+00  2.0102703096543291e+00 2.9871493270790483e-01 0.0000000000000000e+00  2.3410661574318010e+00 3.5016849321274074e-01 0.0000000000000000e+00  -1.5403269692372612e-01 5.5481173843586411e-02 0.0000000000000000e+00  -2.7406173531699057e-01 1.2392374123360847e-02 0.0000000000000000e+00  1.5449248913930134e+00 2.8954935175150992e-01 0.0000000000000000e+00  2.5166115309782997e+00 3.8164798664172905e-01 0.0000000000000000e+00  7.6646749750311563e-02 8.8772006797215530e-02 0.0000000000000000e+00  7.2966748999446981e-02 9.8229013728763415e-02 0.0000000000000000e+00  -2.4731289792957473e-01 4.5448773967048852e-03 0.0000000000000000e+00  3.7143591194165474e-05 1.0305709624130318e-03 0.0000000000000000e+00  9.8317882255139222e-01 3.0239173410841889e-02 0.0000000000000000e+00  1.8232054642598137e+00 3.3339430942705744e-01 0.0000000000000000e+00  2.4591910009510909e+00 3.3243370614964207e-01 0.0000000000000000e+00  4.8335610095402126e-01 1.2855932137184456e-01 0.0000000000000000e+00  2.2296450993933368e+00 3.7623945900137806e-01 0.0000000000000000e+00  2.1932428004299065e+00 2.1603159540119990e-01 0.0000000000000000e+00  2.4400027085984757e+00 2.1306361257967213e-01 0.0000000000000000e+00  2.8177584859493221e+00 3.6343105828852151e-01 0.0000000000000000e+00  </DataArray> 
</PointData> 
</Piece>
</UnstructuredGrid>
</VTKFile>