<?xml version="1.0"?>
<VTKFile type="UnstructuredGrid"  version="0.1"  >
<UnstructuredGrid>
<Piece  NumberOfPoints="104" NumberOfCells="167">
<Points>
<DataArray  type="Float64"  NumberOfComponents="3"  format="ascii">0.7179098792074922 0.09515556231434774 0  0.6930564374308674 0.1341308449452096 0  0.6808979566904864 0.09264351137968369 0  0.883612004374276 0.2044999257790265 0  0.941405262964606 0.2275541950732263 0  0.8724873572796065 0.2505182730032114 0  0.6580228992389956 0.1177787934340178 0  1.122434100544716 0.41 0  1.068894913355815 0.339699543595371 0  1.154144739340952 0.3428674566149401 0  0.9084404882614506 0.2892191224003848 0  1.215451113850732 0.2103314603357224 0  1.249863529963017 0.2672258935273379 0  1.176331347569866 0.2754551993599315 0  0.7101078070491313 0.04593780015520291 0  0.7273492824638629 0.1308306999820452 0  0.6699818017210338 0.05718888729500279 0  0.9882218810956305 0.41 0  0.9246101326886647 0.41 0  0.9513232956593279 0.344238796639219 0  0.8632198139519631 0.41 0  0.882513772872486 0.3520608410452225 0  0.8202234869765325 0.364591028094237 0  0.7991030424147842 0.1996369747921017 0  0.755404159289092 0.1590232243285952 0  0.7509674852354215 0.2077605643765068 0  0.8502354418587501 0.1560244879407868 0  0.9215858179635137 0.1737964996919513 0  0.9080221499231149 0.1220333110997775 0  1.122434100542598 0 0  1.070453094842314 0.06960241275844714 0  1.154904552424504 0.06969164993518225 0  1.017753695734191 0.3624508760213758 0  0.8363367911675036 0.3257327955680793 0  1.05413544556068 0.41 0  0.6244559818022579 0.1024805481876779 0  0.6321311710823254 0.06153785161297727 0  0.595034110037278 0.08371649311769892 0  1.002160515162412 0.1007971030886586 0  1.051646085559005 0.1501053523947661 0  0.7970763259525799 0.1414049767778835 0  0.8757744372027163 0.0680967899541615 0  0.9457932773848412 0.0667989600995588 0  1.054135445558498 0 0  0.7467958595648856 0 0  0.8039733463919316 0 0  0.7693776708684824 0.05639711714283061 0  0.9246101326867038 0 0  0.9882218810934433 0 0  1.005346589798493 0.3067901807747939 0  1.048577150438126 0.2582185237349715 0  1.112767688411364 0.1251261100534626 0  1.171970583870903 0.1546087622866204 0  1.342519516048286 0.41 0  1.266535089881505 0.41 0  1.274599158297837 0.3398495556128484 0  0.8625643833134949 0.2947679371372982 0  1.21281999103096 0.3139909211204517 0  1.019068245937061 0.0469337202247656 0  0.9665635209117881 0.1540989494284837 0  1.008472627814504 0.204999999999892 0  1.111528583326901 0.2818863422907276 0  0.8280582783289157 0.04600943632764167 0  0.7467958595662458 0.41 0  0.6916151138480078 0.41 0  0.7140255670996881 0.3646166311524474 0  0.763519512252238 0.1106765968361548 0  1.146963556870385 0.2220662070926035 0  0.7666101362390253 0.3578469139891653 0  0.7236859362722395 0.2517828338101294 0  0.7667165827043843 0.2524551100397078 0  1.084668006184735 0.2128250251286081 0  0.814691562998009 0.09619193426127341 0  0.7613343746328384 0.3026779105476945 0  0.8174223541212756 0.2698453306575623 0  0.7176052736190859 0.2162836958912044 0  0.7959218455617475 0.3268864684847159 0  1.193204177143353 0.41 0  1.193204177141305 0 0  0.5932743238853959 0.04945528001359441 0  0.6649882407551387 0.02261378243973851 0  0.8039733463934788 0.41 0  0.5869673343216626 0 0  0.619281841121555 0.02915265998465505 0  1.118750868833027 0.1743068070907049 0  0.9108122465318981 0.04113381345596949 0  0.953518183350995 0.1113177413147439 0  0.7293997039068749 0.1878315768275717 0  0.860027688655414 0.1096039208573359 0  0.8632198139502143 0 0  0.7294932489647475 0.2840789881590486 0  1.221368790720609 0.3632125781021275 0  0.6641520523959832 0.1503720468916702 0  0.9607107278835494 0.2834185756442621 0  0.6527022231295108 0.08569477788831682 0  0.6916151138468254 0 0  0.8438935925208596 0.2159584135336446 0  0.7014764931779993 0.1925000000000107 0  0.6711932754123612 0.1788117674793375 0  0.6915000583673684 0.1646401469634124 0  0.7279457694224267 0.3237962213587685 0  0.9950305598379717 0.2553450661633512 0  0.6383613676634521 0 0  0.7206274800156242 0.161583396443773 0  </DataArray>
</Points>
<Cells>
<DataArray  type="UInt32"  Name="connectivity"  format="ascii">0 1 2  3 4 5  1 6 2  7 8 9  10 4 5  11 12 13  0 14 2  0 1 15  16 14 2  17 18 19  20 21 22  23 24 25  3 26 27  28 26 27  29 30 31  17 19 32  33 21 22  7 34 8  35 36 37  38 30 39  23 24 40  10 19 21  28 41 42  43 29 30  44 45 46  47 48 42  49 8 50  51 31 52  51 30 39  53 54 55  10 21 56  0 46 14  57 12 13  48 42 58  38 59 39  60 59 39  61 8 50  45 46 62  60 4 59  63 64 65  0 46 66  11 67 13  63 65 68  61 8 9  23 26 40  49 19 32  69 25 70  60 71 50  72 46 62  73 74 70  69 25 75  60 71 39  51 30 31  23 74 70  4 59 27  73 74 76  61 71 50  38 42 58  77 7 9  29 78 31  79 36 37  16 14 80  44 46 14  61 71 67  81 63 68  33 74 76  72 46 66  82 79 83  72 41 62  23 25 70  71 39 84  41 42 85  18 19 21  51 39 84  28 42 86  24 25 87  72 41 88  47 42 85  89 41 62  69 70 90  72 26 40  57 55 12  77 9 91  20 81 22  1 6 92  10 19 93  33 21 56  35 6 94  95 44 14  23 74 96  23 26 96  97 98 99  36 83 80  95 14 80  89 41 85  49 19 93  28 26 88  33 74 56  18 20 21  3 26 96  72 26 88  11 67 52  16 36 80  24 66 15  28 41 88  0 66 15  57 9 91  3 4 27  45 89 62  73 70 90  81 68 22  34 8 32  38 42 86  49 8 32  65 68 100  98 92 99  38 30 58  43 30 58  10 4 93  67 52 84  89 47 85  73 68 100  60 4 101  6 2 94  34 17 32  61 9 13  48 43 58  28 59 27  38 59 86  82 102 83  28 59 86  57 9 13  97 103 99  102 95 80  54 77 91  24 66 40  49 50 101  72 66 40  35 36 94  1 92 99  60 50 101  73 68 76  1 103 15  1 103 99  24 103 15  97 75 87  24 103 87  54 55 91  74 5 96  71 67 84  97 103 87  4 93 101  79 36 83  57 55 91  61 67 13  16 36 94  74 5 56  25 75 87  51 52 84  16 2 94  102 83 80  49 93 101  10 5 56  68 22 76  3 5 96  33 22 76  73 100 90  </DataArray>
<DataArray  type="UInt32"  Name="offsets"  format="ascii">3 6 9 12 15 18 21 24 27 30 33 36 39 42 45 48 51 54 57 60 63 66 69 72 75 78 81 84 87 90 93 96 99 102 105 108 111 114 117 120 123 126 129 132 135 138 141 144 147 150 153 156 159 162 165 168 171 174 177 180 183 186 189 192 195 198 201 204 207 210 213 216 219 222 225 228 231 234 237 240 243 246 249 252 255 258 261 264 267 270 273 276 279 282 285 288 291 294 297 300 303 306 309 312 315 318 321 324 327 330 333 336 339 342 345 348 351 354 357 360 363 366 369 372 375 378 381 384 387 390 393 396 399 402 405 408 411 414 417 420 423 426 429 432 435 438 441 444 447 450 453 456 459 462 465 468 471 474 477 480 483 486 489 492 495 498 501 </DataArray>
<DataArray  type="UInt8"  Name="types"  format="ascii">5 5 5 5 5 5 5 5 5 5 5 5 5 5 5 5 5 5 5 5 5 5 5 5 5 5 5 5 5 5 5 5 5 5 5 5 5 5 5 5 5 5 5 5 5 5 5 5 5 5 5 5 5 5 5 5 5 5 5 5 5 5 5 5 5 5 5 5 5 5 5 5 5 5 5 5 5 5 5 5 5 5 5 5 5 5 5 5 5 5 5 5 5 5 5 5 5 5 5 5 5 5 5 5 5 5 5 5 5 5 5 5 5 5 5 5 5 5 5 5 5 5 5 5 5 5 5 5 5 5 5 5 5 5 5 5 5 5 5 5 5 5 5 5 5 5 5 5 5 5 5 5 5 5 5 5 5 5 5 5 5 5 5 5 5 5 5 </DataArray>
</Cells>
<PointData  Vectors="f_43-0"> 
<DataArray  type="Float64"  Name="f_43-0"  NumberOfComponents="3" format="ascii">2.5082329849138936e+00 9.4289826349559042e-02 0.0000000000000000e+00  2.9198851060846764e+00 1.8699856274677468e-01 0.0000000000000000e+00  2.5357536842635766e+00 1.3288207268667465e-01 0.0000000000000000e+00  1.4062410856779306e+00 -2.9363477379489213e-03 0.0000000000000000e+00  1.9795793231286463e+00 -1.8816519635460733e-02 0.0000000000000000e+00  2.6914570569782681e+00 -3.5048159216207651e-02 0.0000000000000000e+00  2.8586020650789394e+00 2.1472990693276353e-01 0.0000000000000000e+00  0.0000000000000000e+00 0.0000000000000000e+00 0.0000000000000000e+00  1.9458458200198057e+00 4.7513807176469892e-02 0.0000000000000000e+00  1.9162508309123902e+00 3.5514770613796799e-02 0.0000000000000000e+00  2.6359414921076589e+00 3.3542939996477353e-02 0.0000000000000000e+00  1.6580490411214037e+00 -6.0581394712705109e-05 0.0000000000000000e+00  2.4870518967024515e+00 8.3171130165096419e-03 0.0000000000000000e+00  2.5611634244426655e+00 2.4257593168105329e-02 0.0000000000000000e+00  1.4670929370125212e+00 6.8641578273608925e-03 0.0000000000000000e+00  2.8611781060296297e+00 1.2921249890661729e-01 0.0000000000000000e+00  1.8776600298214248e+00 7.8939503184218232e-02 0.0000000000000000e+00  0.0000000000000000e+00 0.0000000000000000e+00 0.0000000000000000e+00  0.0000000000000000e+00 0.0000000000000000e+00 0.0000000000000000e+00  1.8665848752900998e+00 4.9981804694806689e-02 0.0000000000000000e+00  0.0000000000000000e+00 0.0000000000000000e+00 0.0000000000000000e+00  1.7017467337784353e+00 3.7983111414637324e-02 0.0000000000000000e+00  1.3833984339121959e+00 2.5803724213224306e-02 0.0000000000000000e+00  9.4846453564281574e-01 2.7092570134961608e-02 0.0000000000000000e+00  2.5622388848458071e+00 1.0743385236138125e-01 0.0000000000000000e+00  9.0709969665416434e-01 -2.7681189883260713e-02 0.0000000000000000e+00  2.6025952325934711e+00 2.5794824676653064e-02 0.0000000000000000e+00  1.8858279174043084e+00 1.4925060009681503e-02 0.0000000000000000e+00  2.6692273517401479e+00 -2.9327864711672376e-02 0.0000000000000000e+00  0.0000000000000000e+00 0.0000000000000000e+00 0.0000000000000000e+00  1.9563334075948628e+00 -4.0395975376945482e-02 0.0000000000000000e+00  1.9605366261330759e+00 -3.4646315974932271e-02 0.0000000000000000e+00  1.5134335995905108e+00 3.2048029701426027e-02 0.0000000000000000e+00  2.2537233272744328e+00 1.7733246299990024e-02 0.0000000000000000e+00  0.0000000000000000e+00 0.0000000000000000e+00 0.0000000000000000e+00  2.7692318884122669e+00 2.4338742019966858e-01 0.0000000000000000e+00  2.1069991463004567e+00 1.3381452196720972e-01 0.0000000000000000e+00  2.5942139726049449e+00 2.3952402553363622e-01 0.0000000000000000e+00  2.4155090216816300e+00 -4.8398770754999626e-02 0.0000000000000000e+00  2.4517050701693681e+00 -4.8341064578947364e-03 0.0000000000000000e+00  2.8376782849927524e+00 5.2359516303713056e-02 0.0000000000000000e+00  1.9470269304016810e+00 -4.4603943196437297e-02 0.0000000000000000e+00  1.9117947502029045e+00 -4.6417004180280094e-02 0.0000000000000000e+00  0.0000000000000000e+00 0.0000000000000000e+00 0.0000000000000000e+00  0.0000000000000000e+00 0.0000000000000000e+00 0.0000000000000000e+00  0.0000000000000000e+00 0.0000000000000000e+00 0.0000000000000000e+00  1.7305048563795011e+00 -1.6877536315046626e-02 0.0000000000000000e+00  0.0000000000000000e+00 0.0000000000000000e+00 0.0000000000000000e+00  0.0000000000000000e+00 0.0000000000000000e+00 0.0000000000000000e+00  2.3885053716036282e+00 4.0960070652559237e-02 0.0000000000000000e+00  2.6186525268880581e+00 1.0827728840511863e-02 0.0000000000000000e+00  2.5553536462719366e+00 -2.7423081052203032e-02 0.0000000000000000e+00  2.2425369430372983e+00 1.0583261263049738e-02 0.0000000000000000e+00  0.0000000000000000e+00 0.0000000000000000e+00 0.0000000000000000e+00  0.0000000000000000e+00 0.0000000000000000e+00 0.0000000000000000e+00  1.9636608939834186e+00 2.5058977465748544e-02 0.0000000000000000e+00  2.6193929742879050e+00 1.8119494351320160e-02 0.0000000000000000e+00  2.3005774238538050e+00 3.3422584903000263e-02 0.0000000000000000e+00  1.5486757801655553e+00 -3.3519441754627254e-02 0.0000000000000000e+00  2.4973230466277196e+00 -6.2683595630013160e-03 0.0000000000000000e+00  1.5050304110846959e+00 3.1937351578112385e-03 0.0000000000000000e+00  2.6045336170905200e+00 3.4696072126398241e-02 0.0000000000000000e+00  1.3959178046015226e+00 -3.2004317048127721e-02 0.0000000000000000e+00  0.0000000000000000e+00 0.0000000000000000e+00 0.0000000000000000e+00  0.0000000000000000e+00 0.0000000000000000e+00 0.0000000000000000e+00  1.4514171481402089e+00 -1.9829715772488807e-02 0.0000000000000000e+00  2.6696448874730341e+00 4.8292707860634401e-02 0.0000000000000000e+00  1.8710743526485507e+00 -1.2672178469036850e-02 0.0000000000000000e+00  1.6174264583443989e+00 4.6622480392832745e-03 0.0000000000000000e+00  2.7966188345647662e+00 -1.6009541772828165e-01 0.0000000000000000e+00  2.8399459534572085e+00 -1.0185226575860321e-01 0.0000000000000000e+00  1.6437821945574171e+00 -6.4206941162172947e-03 0.0000000000000000e+00  2.4230047193747537e+00 -2.3718446212806299e-03 0.0000000000000000e+00  2.6317170046278080e+00 -6.4030983619281792e-02 0.0000000000000000e+00  2.8741040418599924e+00 -3.7683534843747195e-02 0.0000000000000000e+00  1.2590844633163818e+00 -9.7915383005127782e-02 0.0000000000000000e+00  2.2498243465524794e+00 -9.1634574711720145e-03 0.0000000000000000e+00  0.0000000000000000e+00 0.0000000000000000e+00 0.0000000000000000e+00  0.0000000000000000e+00 0.0000000000000000e+00 0.0000000000000000e+00  1.9109422637704765e+00 1.3456854427414952e-01 0.0000000000000000e+00  6.5108161228013572e-01 1.1895495066294188e-03 0.0000000000000000e+00  0.0000000000000000e+00 0.0000000000000000e+00 0.0000000000000000e+00  0.0000000000000000e+00 0.0000000000000000e+00 0.0000000000000000e+00  9.6886215003475284e-01 3.3437374137391757e-02 0.0000000000000000e+00  1.8484741862704601e+00 1.5034037004173674e-02 0.0000000000000000e+00  1.3068386989932508e+00 -3.4538243269000950e-02 0.0000000000000000e+00  2.5444049016733770e+00 -3.4156280573439633e-02 0.0000000000000000e+00  1.1405097000073403e+00 7.2588003747959887e-02 0.0000000000000000e+00  2.5881364027014802e+00 -2.2567382196260481e-02 0.0000000000000000e+00  0.0000000000000000e+00 0.0000000000000000e+00 0.0000000000000000e+00  2.8205221212728881e+00 -1.2401680968780300e-01 0.0000000000000000e+00  1.6445204412653001e+00 1.8860337411684150e-02 0.0000000000000000e+00  2.7352849638908059e+00 2.5427206446779882e-01 0.0000000000000000e+00  2.6653086692820183e+00 2.9829864827257409e-02 0.0000000000000000e+00  2.4955869077748267e+00 1.6010765691844167e-01 0.0000000000000000e+00  0.0000000000000000e+00 0.0000000000000000e+00 0.0000000000000000e+00  1.5157728846735574e+00 -2.7254713608334591e-02 0.0000000000000000e+00  8.1833068467452430e-01 6.1643682533464014e-02 0.0000000000000000e+00  1.4034631784342804e+00 1.6531166852957238e-01 0.0000000000000000e+00  2.2373816977685044e+00 1.8576369008335747e-01 0.0000000000000000e+00  2.3602603806241573e+00 -7.5092624220757923e-02 0.0000000000000000e+00  2.6276592939771848e+00 1.3684363681338836e-02 0.0000000000000000e+00  0.0000000000000000e+00 0.0000000000000000e+00 0.0000000000000000e+00  2.4402130856325410e+00 1.5045008264805484e-01 0.0000000000000000e+00  </DataArray> 
</PointData> 
</Piece>
</UnstructuredGrid>
</VTKFile>