<?xml version="1.0"?>
<VTKFile type="UnstructuredGrid"  version="0.1"  >
<UnstructuredGrid>
<Piece  NumberOfPoints="102" NumberOfCells="171">
<Points>
<DataArray  type="Float64"  NumberOfComponents="3"  format="ascii">0.476773013087985 0.1999999999998713 0  0.4693047108508938 0.1970915826863783 0  0.4693047108503577 0.2040749161535231 0  0.4917096175621762 0.1999999999998808 0  0.4842413153250809 0.1970915826863873 0  0.4842413153245942 0.2040749161535287 0  0.5066462220363641 0.199999999999908 0  0.4991779197992749 0.1970915826863902 0  0.4991779197988497 0.2040749161535382 0  0.5215828265105155 0.1999999999999228 0  0.5141145242734466 0.1970915826863843 0  0.5141145242731028 0.2040749161535395 0  0.5365194309847112 0.1999999999999436 0  0.5290511287476175 0.1970915826863981 0  0.5290511287473298 0.2040749161535501 0  0.5327852798661811 0.19 0  0.5253169776290537 0.19 0  0.5178486753919799 0.19 0  0.5103803731549078 0.19 0  0.4879754664436223 0.19 0  0.4805071642065402 0.19 0  0.502912070917822 0.19 0  0.4954437686807294 0.19 0  0.4767730130872753 0.2056971942287455 0  0.4917096175615203 0.2056971942287492 0  0.5066462220358396 0.2056971942287649 0  0.5215828265100828 0.2056971942287677 0  0.5365194309843644 0.2056971942287865 0  0.5439623148931173 0.2040856076781014 0  0.5365194309847112 0.1943028057711659 0  0.5215828265105155 0.1943028057711514 0  0.4767730130879849 0.1943028057711153 0  0.4917096175621761 0.1943028057711214 0  0.5066462220363641 0.1943028057711422 0  0.480507164205851 0.21 0  0.4879754664429498 0.21 0  0.5103803731544119 0.21 0  0.5178486753915261 0.21 0  0.5402535821029386 0.21 0  0.54772188434007 0.21 0  0.4954437686800938 0.21 0  0.502912070917267 0.21 0  0.5253169776286404 0.21 0  0.5327852798657868 0.21 0  0.4730388619686996 0.21 0  0.4991779197992711 0.167693385507626 0  0.4900906149793102 0.1565876018036352 0  0.5082652246192162 0.1565876018036352 0  0.499237761463083 0.2192785032300353 0  0.4993542269391089 0.2308107468212473 0  0.5064903940750056 0.2246838314870058 0  0.5123638022628456 0.2310955071885417 0  0.536567636007916 0.2275987754591341 0  0.5347760817351684 0.2414500964404198 0  0.5283542774025207 0.2302880001042248 0  0.5455709551586724 0.2324144452751203 0  0.546982877175164 0.2233942294772845 0  0.5365194309843644 0.2180863504285254 0  0.5444469726554123 0.2157339702670886 0  0.5588244563271773 0.225349035787779 0  0.5519051872593019 0.2166420053265535 0  0.5216178319364539 0.1813492122870838 0  0.5265047000024197 0.2223941974774756 0  0.5286910337265995 0.2154702409242758 0  0.5150278681324471 0.2228450308306156 0  0.5214285426002536 0.2161011329323836 0  0.4767730130872752 0.2184019876485795 0  0.5209814004512184 0.2362962593649592 0  0.5084573036363184 0.2395108277223441 0  0.553378981997341 0.2322691570724318 0  0.5504647692515866 0.2417078359721865 0  0.4910031975930484 0.2171006717137592 0  0.5075668509025225 0.2171084086245455 0  0.5143590539697885 0.2155988592715468 0  0.4917096175621761 0.1826726487251064 0  0.5066462220363641 0.1826726487251085 0  0.5208355992062484 0.2285465546466679 0  0.4767380076620556 0.1813492122870721 0  0.4842366479349569 0.1837683957184343 0  0.5141191916635692 0.1837683957184422 0  0.4867628426197099 0.1672556638427207 0  0.5290511287476175 0.1834818376483974 0  0.5115929969788211 0.1672556638427288 0  0.4841984187204001 0.2159109988582109 0  0.5294745265341012 0.1761054820336709 0  0.5366299525895074 0.1825690825227473 0  0.4842413153250809 0.1755365127551258 0  0.4923756029794709 0.2245693836696246 0  0.4869999746943883 0.2308048359320609 0  0.5141145242734466 0.1755365127551412 0  0.4846260107628763 0.2228898464509046 0  0.4767730130879849 0.1622083790703084 0  0.5215828265105156 0.1622083790703317 0  0.4991779197992725 0.1783172034453956 0  0.4923389098589435 0.1741809711526818 0  0.4767269250530047 0.1713973971258736 0  0.506016929739597 0.1741809711526895 0  0.5349004284018322 0.1565876018036672 0  0.5316967135713353 0.1673421178078786 0  0.5216289307659581 0.1713997813123399 0  0.4991779197992735 0.1849089375109228 0  0.5631143150331265 0.2366473934541688 0  </DataArray>
</Points>
<Cells>
<DataArray  type="UInt32"  Name="connectivity"  format="ascii">0 1 2  3 4 5  6 7 8  9 10 11  12 13 14  9 13 14  6 10 11  3 7 8  0 4 5  15 16 13  17 18 10  19 20 4  21 22 7  0 2 23  3 5 24  6 8 25  9 11 26  12 14 27  12 28 27  9 14 26  6 11 25  3 8 24  0 5 23  15 13 29  16 13 30  9 13 30  12 13 29  0 4 31  20 4 31  0 1 31  19 4 32  18 10 33  21 7 33  22 7 32  17 10 30  6 7 33  6 10 33  3 4 32  3 7 32  9 10 30  34 35 5  36 37 11  38 39 28  40 41 8  42 43 14  34 5 23  44 2 23  35 5 24  40 8 24  36 11 25  41 8 25  42 14 26  43 14 27  38 28 27  37 11 26  44 34 23  35 40 24  41 36 25  43 38 27  37 42 26  22 19 32  18 21 33  16 17 30  45 46 47  40 41 48  49 50 51  52 53 54  52 53 55  56 57 58  59 56 60  52 56 57  16 17 61  52 62 57  62 57 63  64 62 65  44 34 66  67 53 54  43 38 57  49 68 51  59 56 69  70 53 55  40 48 71  41 48 72  52 56 55  64 73 65  22 19 74  18 21 75  64 62 76  20 77 78  17 61 79  45 46 80  16 61 81  56 55 69  45 47 82  34 66 83  35 40 71  41 36 72  84 85 81  52 62 54  86 74 78  49 87 88  67 68 51  89 75 79  38 57 58  43 57 63  90 71 83  64 72 73  91 46 80  19 20 78  17 18 79  15 16 81  34 35 83  92 47 82  36 37 73  45 93 94  86 77 95  45 93 96  92 97 98  45 94 80  19 74 78  84 61 99  18 75 79  45 96 82  89 61 99  90 71 87  37 42 65  15 85 81  64 72 50  86 74 94  89 75 96  38 39 58  35 71 83  36 72 73  22 74 100  21 75 100  42 43 63  84 61 81  86 80 95  84 98 99  86 77 78  89 61 79  89 82 99  49 48 87  49 48 50  90 66 83  37 73 65  48 71 87  48 72 50  39 60 58  42 65 63  92 98 99  91 80 95  59 101 69  21 22 100  92 82 99  64 50 51  86 94 80  93 74 94  93 75 96  89 96 82  70 101 69  93 74 100  93 75 100  56 60 58  62 65 63  90 87 88  62 54 76  64 76 51  70 55 69  67 76 51  67 54 76  </DataArray>
<DataArray  type="UInt32"  Name="offsets"  format="ascii">3 6 9 12 15 18 21 24 27 30 33 36 39 42 45 48 51 54 57 60 63 66 69 72 75 78 81 84 87 90 93 96 99 102 105 108 111 114 117 120 123 126 129 132 135 138 141 144 147 150 153 156 159 162 165 168 171 174 177 180 183 186 189 192 195 198 201 204 207 210 213 216 219 222 225 228 231 234 237 240 243 246 249 252 255 258 261 264 267 270 273 276 279 282 285 288 291 294 297 300 303 306 309 312 315 318 321 324 327 330 333 336 339 342 345 348 351 354 357 360 363 366 369 372 375 378 381 384 387 390 393 396 399 402 405 408 411 414 417 420 423 426 429 432 435 438 441 444 447 450 453 456 459 462 465 468 471 474 477 480 483 486 489 492 495 498 501 504 507 510 513 </DataArray>
<DataArray  type="UInt8"  Name="types"  format="ascii">5 5 5 5 5 5 5 5 5 5 5 5 5 5 5 5 5 5 5 5 5 5 5 5 5 5 5 5 5 5 5 5 5 5 5 5 5 5 5 5 5 5 5 5 5 5 5 5 5 5 5 5 5 5 5 5 5 5 5 5 5 5 5 5 5 5 5 5 5 5 5 5 5 5 5 5 5 5 5 5 5 5 5 5 5 5 5 5 5 5 5 5 5 5 5 5 5 5 5 5 5 5 5 5 5 5 5 5 5 5 5 5 5 5 5 5 5 5 5 5 5 5 5 5 5 5 5 5 5 5 5 5 5 5 5 5 5 5 5 5 5 5 5 5 5 5 5 5 5 5 5 5 5 5 5 5 5 5 5 5 5 5 5 5 5 5 5 5 5 5 5 </DataArray>
</Cells>
<PointData  Vectors="f_43-0"> 
<DataArray  type="Float64"  Name="f_43-0"  NumberOfComponents="3" format="ascii">2.0169904532182380e-05 -2.0319423283274052e-04 0.0000000000000000e+00  1.6506899611312291e-05 -1.9190349335627052e-04 0.0000000000000000e+00  2.5952024781195994e-05 -1.9461919897907905e-04 0.0000000000000000e+00  1.9450172668689458e-05 -2.2375165313486795e-04 0.0000000000000000e+00  1.5859630652224973e-05 -2.1235858313261804e-04 0.0000000000000000e+00  2.5455032176016862e-05 -2.1496368656075604e-04 0.0000000000000000e+00  1.8459025573381778e-05 -2.4455068451784129e-04 0.0000000000000000e+00  1.4955942376689159e-05 -2.3309022571332632e-04 0.0000000000000000e+00  2.4667883106128351e-05 -2.3558409772333818e-04 0.0000000000000000e+00  1.7194133243606979e-05 -2.6553015717559382e-04 0.0000000000000000e+00  1.3791783836341463e-05 -2.5403219972506300e-04 0.0000000000000000e+00  2.3591469774456818e-05 -2.5641395534652898e-04 0.0000000000000000e+00  1.5652060189327604e-05 -2.8663892568452358e-04 0.0000000000000000e+00  1.2362363357028835e-05 -2.7512853653184112e-04 0.0000000000000000e+00  2.2225811597648680e-05 -2.7739676510333872e-04 0.0000000000000000e+00  2.0314801319102690e-06 -2.7816223033705898e-04 0.0000000000000000e+00  2.8394123749046347e-06 -2.6752894654769353e-04 0.0000000000000000e+00  3.5851241585740503e-06 -2.5692574545170159e-04 0.0000000000000000e+00  4.2702105260783959e-06 -2.4635898485158913e-04 0.0000000000000000e+00  5.9727378305473186e-06 -2.1494067344907539e-04 0.0000000000000000e+00  6.4266771745198328e-06 -2.0458774078529988e-04 0.0000000000000000e+00  4.8956352950539391e-06 -2.3583423596578487e-04 0.0000000000000000e+00  5.4628598316176407e-06 -2.2535921731498847e-04 0.0000000000000000e+00  2.7967431631064490e-05 -2.0537714255414185e-04 0.0000000000000000e+00  2.7355978790696312e-05 -2.2584132365315463e-04 0.0000000000000000e+00  2.6447675638087072e-05 -2.4654691356320593e-04 0.0000000000000000e+00  2.5244201490777108e-05 -2.6743242567870811e-04 0.0000000000000000e+00  2.3745963862652372e-05 -2.8844617928967104e-04 0.0000000000000000e+00  2.0587657473279041e-05 -2.9845327580787004e-04 0.0000000000000000e+00  7.6252463020514648e-06 -2.8484089644345003e-04 0.0000000000000000e+00  9.2102810018571420e-06 -2.6364118638203411e-04 0.0000000000000000e+00  1.2437295906751979e-05 -2.0104259600025942e-04 0.0000000000000000e+00  1.1609587441366046e-05 -2.2168624715389283e-04 0.0000000000000000e+00  1.0536007701586263e-05 -2.4257273712985150e-04 0.0000000000000000e+00  3.3803822097687832e-05 -2.1211735929934126e-04 0.0000000000000000e+00  3.3538493179492988e-05 -2.2231310257082331e-04 0.0000000000000000e+00  3.2269269531330495e-05 -2.5325488781985741e-04 0.0000000000000000e+00  3.1690441273958607e-05 -2.6366134133307156e-04 0.0000000000000000e+00  2.9492434276523103e-05 -2.9506703651972950e-04 0.0000000000000000e+00  2.8606476037933824e-05 -3.0557993604767898e-04 0.0000000000000000e+00  3.3193926595464194e-05 -2.3257336433618237e-04 0.0000000000000000e+00  3.2770672517280735e-05 -2.4288978579665044e-04 0.0000000000000000e+00  3.1034466135233387e-05 -2.7410269880205428e-04 0.0000000000000000e+00  3.0301766167602496e-05 -2.8457307087610608e-04 0.0000000000000000e+00  3.3989175522038543e-05 -2.0199530975412408e-04 0.0000000000000000e+00  1.4473760024291321e-01 5.0631498392648586e-04 0.0000000000000000e+00  1.5910615143469750e-01 8.7500607514268407e-04 0.0000000000000000e+00  1.5991523858952816e-01 1.2190986071694736e-03 0.0000000000000000e+00  9.1655876268644049e-02 -4.2505563671046178e-04 0.0000000000000000e+00  1.4134636553687224e-01 -9.1187744197104002e-04 0.0000000000000000e+00  1.2135338373135669e-01 -7.2306447531241057e-04 0.0000000000000000e+00  1.4278375771064772e-01 -1.1400967833226866e-03 0.0000000000000000e+00  1.3470061990518348e-01 -1.5110081486010983e-03 0.0000000000000000e+00  1.6024784160478950e-01 -2.7789402293597939e-03 0.0000000000000000e+00  1.4188057531296117e-01 -1.5007515658665219e-03 0.0000000000000000e+00  1.4873608995058515e-01 -2.5771619731117237e-03 0.0000000000000000e+00  1.1871516666287146e-01 -1.4185731363164412e-03 0.0000000000000000e+00  8.5005924341382308e-02 -6.3477219582271614e-04 0.0000000000000000e+00  6.6029850126409759e-02 -5.5922372780789996e-04 0.0000000000000000e+00  1.2946217762102305e-01 -2.4324857465861972e-03 0.0000000000000000e+00  7.4791938875948594e-02 -7.2012980561271154e-04 0.0000000000000000e+00  8.8086662745838387e-02 -2.6473355494177881e-07 0.0000000000000000e+00  1.1163116781016363e-01 -8.2094914252789917e-04 0.0000000000000000e+00  6.2671485499525045e-02 -3.9469514038565441e-04 0.0000000000000000e+00  1.1321803265455110e-01 -6.9458131154204129e-04 0.0000000000000000e+00  6.8022635563170883e-02 -4.0422711773104426e-04 0.0000000000000000e+00  8.4887799953389520e-02 -3.2076237780418609e-04 0.0000000000000000e+00  1.5335793997469435e-01 -1.7000778599208402e-03 0.0000000000000000e+00  1.5663202575275975e-01 -1.5331867090019183e-03 0.0000000000000000e+00  1.4955667306507653e-01 -3.1566624737182029e-03 0.0000000000000000e+00  1.6206573620194306e-01 -4.1549696191359384e-03 0.0000000000000000e+00  7.5422102734697558e-02 -3.0985257623005532e-04 0.0000000000000000e+00  7.5959862812820758e-02 -3.9626198975514174e-04 0.0000000000000000e+00  6.3281545569653500e-02 -3.7388635619466635e-04 0.0000000000000000e+00  7.7104037342059215e-02 -1.1370872445854874e-04 0.0000000000000000e+00  7.7542356568218687e-02 -1.0870692381084316e-04 0.0000000000000000e+00  1.3634622607726715e-01 -1.1587600705670294e-03 0.0000000000000000e+00  8.6550512246716393e-02 -8.6787277525901573e-05 0.0000000000000000e+00  6.8008807350173228e-02 -1.2195121172975479e-04 0.0000000000000000e+00  6.8797489420472702e-02 -1.5144330372438963e-04 0.0000000000000000e+00  1.4511485762650236e-01 4.1788387030114460e-04 0.0000000000000000e+00  7.1887065985687726e-02 -6.8551984691873777e-05 0.0000000000000000e+00  1.4630672101067102e-01 7.0424183167788160e-04 0.0000000000000000e+00  6.5331035008112062e-02 -2.9338453283250300e-04 0.0000000000000000e+00  1.1914661827272453e-01 4.4737742383654767e-04 0.0000000000000000e+00  7.9829798570568336e-02 1.5548706672601696e-05 0.0000000000000000e+00  1.1934902340433322e-01 1.0572906075668188e-04 0.0000000000000000e+00  1.2024697207662932e-01 -5.4781749704895704e-04 0.0000000000000000e+00  1.4085411183576121e-01 -7.7764993549256931e-04 0.0000000000000000e+00  1.2065401125211613e-01 2.4372164148158483e-04 0.0000000000000000e+00  1.1217948622286260e-01 -4.7837680709915934e-04 0.0000000000000000e+00  1.5311989400094209e-01 5.2733561966714895e-04 0.0000000000000000e+00  1.5530830175171492e-01 1.3021894658098801e-03 0.0000000000000000e+00  1.0626981203022809e-01 3.7930743853685263e-05 0.0000000000000000e+00  1.2522697368672828e-01 1.4976295135662182e-04 0.0000000000000000e+00  1.3422439461949556e-01 2.0778880724752478e-04 0.0000000000000000e+00  1.2582931584551302e-01 2.7370914059079494e-04 0.0000000000000000e+00  1.6165525232975217e-01 2.3945070107259281e-03 0.0000000000000000e+00  1.4761808906007640e-01 1.2775895827817677e-03 0.0000000000000000e+00  1.3639214784868428e-01 6.4135419990336829e-04 0.0000000000000000e+00  5.8116114047708008e-02 -1.7048048031891003e-04 0.0000000000000000e+00  1.5872628040502706e-01 -5.2778162632112265e-03 0.0000000000000000e+00  </DataArray> 
</PointData> 
</Piece>
</UnstructuredGrid>
</VTKFile>