<?xml version="1.0"?>
<VTKFile type="UnstructuredGrid"  version="0.1"  >
<UnstructuredGrid>
<Piece  NumberOfPoints="104" NumberOfCells="168">
<Points>
<DataArray  type="Float64"  NumberOfComponents="3"  format="ascii">0.1123698019379044 0.2058991360802581 0  0.1106531987626008 0.1894643335925837 0  0.09638298985168356 0.2000713960717276 0  0.0534241021414831 0.2075428856341382 0  0.07538638723190919 0.1915913195394167 0  0.06726459509928774 0.2147740778951952 0  0.05117116986370451 0.1453484941029572 0  0.028576868323113 0.1257840022252348 0  0.02526469030969892 0.1581631046774197 0  0.07781603907681035 0.1514291067465787 0  0.06748599119092742 0.1295390004813558 0  0.04799687037553593 0.1900185470502504 0  0.09145562669711395 0.175668370620234 0  0.09635163646555502 0.1596076048115481 0  0.07646146193815946 0.1687797331838 0  0 0.05857142857161107 0  0 0.02928571428580012 0  0.02797905238142366 0.04239836249189064 0  0.06224717571675014 0.16049953533406 0  0 0.1464285714289574 0  0.09921229729781815 0.216694589313852 0  0.09898678642452967 0.1862327908870533 0  0.05400790163887537 0.1101452894911868 0  0.03212895351398194 0.09444182905744057 0  0.08319468457824891 0.2132940804249223 0  0.05506284017382649 0.2425906156552861 0  0.03234799839792719 0.2322323714096635 0  0.03317213267821684 0.2576605437337542 0  0.1292063859387973 0.160179270973018 0  0.1151037363297016 0.1585854167638264 0  0.1231191457617618 0.1724983802372761 0  0.1355360062927427 0.1738833905690768 0  0.1050372607361503 0.1429640509822009 0  0.1230381620938855 0.1450531231009962 0  0.0935028978038551 0.1155179240798671 0  0.111152240021284 0.1189096594659376 0  0.1054072552277489 0.1021549990488465 0  0.1096093854383046 0.1735927505678576 0  0 0.2050000000005308 0  0 0.175714285714732 0  0.02618711892167316 0.1853857958188918 0  0.01613142829340684 0.1072217040510405 0  0.122936306709419 0.1942457603434553 0  0.06019518928764452 0.1756854700606436 0  0.02666772661991777 0.0679778810487357 0  0 0.1171428571431897 0  0.1014345676140794 0.1290819941168235 0  0.117949309539449 0.1314289940198134 0  0.03021129466766341 0.2085417214687756 0  0.1036135449877143 0.05738959277900078 0  0.09466282906331301 0.08157239522441412 0  0.07832843537012292 0.06126359650172827 0  0.1391384346554765 0.1858795044738252 0  0.145931504770643 0.1790663128181236 0  0.122631157988491 0.09257199523221718 0  0.1134537715612197 0.07678361544475715 0  0.05222303834057849 0.2265528286728498 0  0.1148334976584671 0.02974143409366008 0  0.09081855865494762 0.03967545099949583 0  0.08022298127737337 0.02066125809180845 0  0.02189315577988027 0.02003654345635235 0  0.1547844879126891 0.178656207771761 0  0.1521457199348551 0.1855097315605723 0  0.09153146034330391 0.147014376487579 0  0.1287170257632792 0.184020996598548 0  0.15 0.2 0  0.1505393388476355 0.1926758619366523 0  0.1422409429600901 0.1949058082424083 0  0.08753885022423818 0.1327572923195972 0  0.09377624077125973 0 0  0.1190100010379731 0.1821161889112382 0  0.1505393388476328 0.2073241380633295 0  0.1411840007379324 0.2116418969121702 0  0.142418795187722 0.2037346032343752 0  0 0.2635714285718054 0  0.01618611334675497 0.2427628432417809 0  0.05089208832759198 0.1278218136608264 0  0.07652608185644398 0.1136649778936783 0  0 0.08785714285737878 0  0.1222490905968041 0.0568943244623543 0  0.05279799154606677 0.07413248748556238 0  0.05175480232928564 0.05161223413186988 0  0.1253993623290572 0.2064220893288703 0  0.1461361374362119 0.1877340006482242 0  0.04532626869875341 0.1677660334507069 0  0.1334936092195415 0.1996994045566088 0  0.05608725465409541 0.09204870468608509 0  0.07008568006437076 0.038573163912329 0  0 0 0  0.03015443760436003 0 0  0.01505266539966814 0.2227442931166357 0  0.1340862878862802 0.2075381961934842 0  0.07522121061998752 0.08286780747833024 0  0.06140001986583606 0 0  0.04981329681653419 0.02287349761798159 0  0.1332359054626095 0.1910279922431038 0  0.1185608756269049 0.1083965233746596 0  0.07392371664175142 0.2310989703896346 0  0.1315669208937715 0.2153401624373302 0  0.1208839583881551 0.2181173442085023 0  0.08823391104783466 0.09873317213709612 0  0 0.2342857142861561 0  0.0736413556775514 0.09691323218918799 0  0.1261668873624441 0.1203748521618074 0  </DataArray>
</Points>
<Cells>
<DataArray  type="UInt32"  Name="connectivity"  format="ascii">0 1 2  3 4 5  6 7 8  6 9 10  3 4 11  12 13 14  15 16 17  6 9 18  19 7 8  0 2 20  2 4 21  9 13 14  22 7 23  12 4 21  24 4 5  25 26 27  28 29 30  28 31 30  24 2 4  32 33 29  34 35 36  37 1 21  12 37 13  38 39 40  28 33 29  7 23 41  0 1 42  12 37 21  43 4 11  15 17 44  19 45 7  34 35 46  32 13 29  32 33 47  38 40 48  49 50 51  52 53 31  54 36 55  25 26 56  39 40 8  57 58 59  16 17 60  12 4 14  61 62 53  24 2 20  9 13 63  49 50 55  64 52 31  50 36 55  65 66 67  9 10 68  69 57 59  37 1 70  32 47 46  71 72 73  74 27 75  37 13 29  37 29 30  6 7 76  34 68 77  78 23 44  3 48 56  39 19 8  49 57 79  80 23 44  80 44 81  22 7 76  0 42 82  49 51 58  62 53 83  40 84 11  78 15 44  1 2 21  43 4 14  40 8 84  65 67 73  26 48 56  85 67 73  22 23 86  10 68 77  43 84 11  85 42 82  66 67 83  6 8 84  17 44 81  87 51 58  6 10 76  65 71 73  80 51 81  80 23 86  88 16 60  35 47 46  88 89 60  38 48 90  85 73 91  49 57 58  9 68 63  80 51 92  89 93 94  50 51 92  85 42 95  64 31 30  64 52 95  78 23 41  52 67 95  35 36 96  24 97 5  98 82 99  25 97 56  87 51 81  45 7 41  52 53 83  64 42 70  34 68 46  52 67 83  72 73 91  64 42 95  87 94 59  89 94 60  93 94 59  87 94 81  97 5 56  17 94 81  26 27 75  22 10 77  45 78 41  85 82 91  3 48 11  0 82 99  32 68 63  32 68 46  80 86 92  98 82 91  93 69 59  85 67 95  32 13 63  34 77 100  74 101 75  22 10 76  98 72 91  54 36 96  101 38 90  50 100 92  17 94 60  22 102 77  40 48 11  1 42 70  62 66 83  102 100 92  43 84 18  26 75 90  102 86 92  35 96 103  34 36 100  43 14 18  102 77 100  37 30 70  50 36 100  22 102 86  49 55 79  9 14 18  101 75 90  64 30 70  6 84 18  35 47 103  87 58 59  3 5 56  26 48 90  </DataArray>
<DataArray  type="UInt32"  Name="offsets"  format="ascii">3 6 9 12 15 18 21 24 27 30 33 36 39 42 45 48 51 54 57 60 63 66 69 72 75 78 81 84 87 90 93 96 99 102 105 108 111 114 117 120 123 126 129 132 135 138 141 144 147 150 153 156 159 162 165 168 171 174 177 180 183 186 189 192 195 198 201 204 207 210 213 216 219 222 225 228 231 234 237 240 243 246 249 252 255 258 261 264 267 270 273 276 279 282 285 288 291 294 297 300 303 306 309 312 315 318 321 324 327 330 333 336 339 342 345 348 351 354 357 360 363 366 369 372 375 378 381 384 387 390 393 396 399 402 405 408 411 414 417 420 423 426 429 432 435 438 441 444 447 450 453 456 459 462 465 468 471 474 477 480 483 486 489 492 495 498 501 504 </DataArray>
<DataArray  type="UInt8"  Name="types"  format="ascii">5 5 5 5 5 5 5 5 5 5 5 5 5 5 5 5 5 5 5 5 5 5 5 5 5 5 5 5 5 5 5 5 5 5 5 5 5 5 5 5 5 5 5 5 5 5 5 5 5 5 5 5 5 5 5 5 5 5 5 5 5 5 5 5 5 5 5 5 5 5 5 5 5 5 5 5 5 5 5 5 5 5 5 5 5 5 5 5 5 5 5 5 5 5 5 5 5 5 5 5 5 5 5 5 5 5 5 5 5 5 5 5 5 5 5 5 5 5 5 5 5 5 5 5 5 5 5 5 5 5 5 5 5 5 5 5 5 5 5 5 5 5 5 5 5 5 5 5 5 5 5 5 5 5 5 5 5 5 5 5 5 5 5 5 5 5 5 5 </DataArray>
</Cells>
<PointData  Vectors="f_43-0"> 
<DataArray  type="Float64"  Name="f_43-0"  NumberOfComponents="3" format="ascii">1.2615724151524312e-03 9.1215872526552176e-05 0.0000000000000000e+00  1.3001568993320017e-03 -1.8734748657105169e-04 0.0000000000000000e+00  1.4955583862644624e-03 -1.1078628201076558e-05 0.0000000000000000e+00  1.9204406368613998e-03 3.8666737128700715e-05 0.0000000000000000e+00  1.7273537208107334e-03 -9.5822289941948304e-05 0.0000000000000000e+00  1.8013002777786306e-03 1.1079675041388071e-04 0.0000000000000000e+00  1.8861351467682730e-03 -4.5934980682270062e-04 0.0000000000000000e+00  1.9350966213579294e-03 -5.5016643047003607e-04 0.0000000000000000e+00  2.1058384687326890e-03 -4.1313331744911896e-04 0.0000000000000000e+00  1.7528104714453908e-03 -4.1756457267479261e-04 0.0000000000000000e+00  1.7809562218645137e-03 -4.9452679301212311e-04 0.0000000000000000e+00  1.9652143261063276e-03 -1.1848872032321038e-04 0.0000000000000000e+00  1.5976799461153064e-03 -2.7497931208033983e-04 0.0000000000000000e+00  1.6266472839810385e-03 -4.2142411619404375e-04 0.0000000000000000e+00  1.7305956361958054e-03 -2.9316997836994032e-04 0.0000000000000000e+00  1.1940204324623431e-03 0.0000000000000000e+00 0.0000000000000000e+00  6.4676106758383971e-04 0.0000000000000000e+00 0.0000000000000000e+00  1.1199019064912538e-03 -4.7696553422026859e-04 0.0000000000000000e+00  1.8332705095377249e-03 -3.4994983721956002e-04 0.0000000000000000e+00  2.2387883108637031e-03 0.0000000000000000e+00 0.0000000000000000e+00  1.4933262316257690e-03 1.9677333146807209e-04 0.0000000000000000e+00  1.4868688500742975e-03 -1.8852063684643972e-04 0.0000000000000000e+00  1.7599364602376296e-03 -5.7330573319616532e-04 0.0000000000000000e+00  1.6727393778973871e-03 -6.7525311286739176e-04 0.0000000000000000e+00  1.6546804856726034e-03 1.1233114920496950e-04 0.0000000000000000e+00  1.9168846604634725e-03 3.4194675844693593e-04 0.0000000000000000e+00  2.1009947757947510e-03 2.7996775766868712e-04 0.0000000000000000e+00  2.0358863691679482e-03 4.5124204980695508e-04 0.0000000000000000e+00  1.4637105628390466e-03 -7.5902021249018897e-04 0.0000000000000000e+00  1.5350264033397270e-03 -5.6335695760117912e-04 0.0000000000000000e+00  1.2902832142031092e-03 -5.7287897486447200e-04 0.0000000000000000e+00  1.0982560040962120e-03 -8.1286060803667569e-04 0.0000000000000000e+00  1.6810589554273510e-03 -5.2569044359473916e-04 0.0000000000000000e+00  1.6704020585265968e-03 -6.6461684884898246e-04 0.0000000000000000e+00  1.7535291441055465e-03 -4.9246558778875949e-04 0.0000000000000000e+00  1.7827979334839662e-03 -5.2135168801561494e-04 0.0000000000000000e+00  1.7794045221382151e-03 -4.5661294978727673e-04 0.0000000000000000e+00  1.4335325043555692e-03 -3.9325178496641398e-04 0.0000000000000000e+00  2.4377917162709539e-03 0.0000000000000000e+00 0.0000000000000000e+00  2.3880408649200016e-03 0.0000000000000000e+00 0.0000000000000000e+00  2.1893681347029304e-03 -1.7238579338660741e-04 0.0000000000000000e+00  1.8243427608022221e-03 -8.1978169731206020e-04 0.0000000000000000e+00  1.0383182998892405e-03 -1.5141160760236846e-04 0.0000000000000000e+00  1.8497057296384528e-03 -2.3371259483784542e-04 0.0000000000000000e+00  1.4227849894347595e-03 -6.5577190656269469e-04 0.0000000000000000e+00  1.9900340541021281e-03 0.0000000000000000e+00 0.0000000000000000e+00  1.7413719868852818e-03 -5.1768640198021187e-04 0.0000000000000000e+00  1.7592244270436545e-03 -5.8635659829454011e-04 0.0000000000000000e+00  2.1520113091759757e-03 4.8691009642559800e-05 0.0000000000000000e+00  1.6948428747630732e-03 -2.8429228002619039e-04 0.0000000000000000e+00  1.7152666105418729e-03 -4.0247342621878496e-04 0.0000000000000000e+00  1.5877647566632858e-03 -3.7189599384541749e-04 0.0000000000000000e+00  6.6569407152385930e-04 -6.2128596896395439e-04 0.0000000000000000e+00  6.7676376317662556e-04 -9.6527015520978096e-04 0.0000000000000000e+00  1.8508770438862860e-03 -4.1175640029042005e-04 0.0000000000000000e+00  1.7867980185594134e-03 -3.5580549285003026e-04 0.0000000000000000e+00  1.9473264323985327e-03 2.0037256074646937e-04 0.0000000000000000e+00  1.5218263314820141e-03 -1.2645128211767126e-04 0.0000000000000000e+00  1.6016532405153012e-03 -2.2520921176880397e-04 0.0000000000000000e+00  1.3895463968504218e-03 -1.0914167897595165e-04 0.0000000000000000e+00  7.7455470826717678e-04 -2.9167216711964287e-04 0.0000000000000000e+00  0.0000000000000000e+00 0.0000000000000000e+00 0.0000000000000000e+00  0.0000000000000000e+00 0.0000000000000000e+00 0.0000000000000000e+00  1.6981306224360055e-03 -4.5830561616591316e-04 0.0000000000000000e+00  9.9899224642065708e-04 -4.7049359483537063e-04 0.0000000000000000e+00  0.0000000000000000e+00 0.0000000000000000e+00 0.0000000000000000e+00  0.0000000000000000e+00 0.0000000000000000e+00 0.0000000000000000e+00  3.3139597600535489e-04 -2.6049270478354617e-04 0.0000000000000000e+00  1.7383298889612885e-03 -4.8366576591271388e-04 0.0000000000000000e+00  0.0000000000000000e+00 0.0000000000000000e+00 0.0000000000000000e+00  1.2153761490557280e-03 -3.7504290191282965e-04 0.0000000000000000e+00  0.0000000000000000e+00 0.0000000000000000e+00 0.0000000000000000e+00  5.1067294244785640e-04 5.4281921858923010e-04 0.0000000000000000e+00  3.1061561058725619e-04 1.7993979272938905e-04 0.0000000000000000e+00  2.2387883108585197e-03 0.0000000000000000e+00 0.0000000000000000e+00  2.2376113998830043e-03 4.0939252729579130e-04 0.0000000000000000e+00  1.8298846483952034e-03 -5.3583820040918227e-04 0.0000000000000000e+00  1.7436536389607597e-03 -5.0394556904531651e-04 0.0000000000000000e+00  1.6417780946346653e-03 0.0000000000000000e+00 0.0000000000000000e+00  1.7822338354426647e-03 -2.4303989511012468e-04 0.0000000000000000e+00  1.5541317630049063e-03 -5.4799201300176250e-04 0.0000000000000000e+00  1.3934028410525717e-03 -4.4107362504795848e-04 0.0000000000000000e+00  9.7930581749759086e-04 1.6510172576427411e-04 0.0000000000000000e+00  3.0504680005918818e-04 -5.8554683909067384e-04 0.0000000000000000e+00  1.9740485540613744e-03 -3.0754020421272673e-04 0.0000000000000000e+00  6.9018131671908216e-04 -2.2666645842992225e-05 0.0000000000000000e+00  1.6668174768433431e-03 -5.6452213763392848e-04 0.0000000000000000e+00  1.4527933315630565e-03 -2.7297647640651734e-04 0.0000000000000000e+00  0.0000000000000000e+00 0.0000000000000000e+00 0.0000000000000000e+00  0.0000000000000000e+00 0.0000000000000000e+00 0.0000000000000000e+00  2.2892714557588198e-03 1.9935335709039554e-04 0.0000000000000000e+00  7.0876295954283607e-04 2.7621139703877496e-04 0.0000000000000000e+00  1.6559308307729948e-03 -4.6223949941582947e-04 0.0000000000000000e+00  0.0000000000000000e+00 0.0000000000000000e+00 0.0000000000000000e+00  1.1353019543293157e-03 -2.1806471639509238e-04 0.0000000000000000e+00  7.5959948942667780e-04 -3.3025337883996431e-04 0.0000000000000000e+00  1.8287934340562074e-03 -4.9156409092067160e-04 0.0000000000000000e+00  1.7732806582936485e-03 2.6100023026433218e-04 0.0000000000000000e+00  9.1728799474308741e-04 4.8367546368507491e-04 0.0000000000000000e+00  1.1928103330726477e-03 3.8461678133056660e-04 0.0000000000000000e+00  1.7305702484295441e-03 -4.6878797858356945e-04 0.0000000000000000e+00  2.3880408649169845e-03 0.0000000000000000e+00 0.0000000000000000e+00  1.7036730825135474e-03 -5.0262061523524064e-04 0.0000000000000000e+00  1.8475547578389068e-03 -5.6877885667967949e-04 0.0000000000000000e+00  </DataArray> 
</PointData> 
</Piece>
</UnstructuredGrid>
</VTKFile>