<?xml version="1.0"?>
<VTKFile type="UnstructuredGrid"  version="0.1"  >
<UnstructuredGrid>
<Piece  NumberOfPoints="104" NumberOfCells="167">
<Points>
<DataArray  type="Float64"  NumberOfComponents="3"  format="ascii">0.3012679105156187 0.19 0  0.3006558810093873 0.1999966199048318 0  0.3066757059912147 0.1964092924317024 0  0.301267910515333 0.21 0  0.3067669986803285 0.203627750582736 0  0.3162045149895234 0.21 0  0.3236728172265972 0.21 0  0.3199386661080599 0.202908417313604 0  0.3087362127524279 0.21 0  0.3274069683451451 0.2056971942288527 0  0.312746837849954 0.2054193256016435 0  0.3127789816668748 0.1998657885438805 0  0.3311411194636928 0.21 0  0.3605639237643 0.2793006923612668 0  0.3754967205959606 0.2925860795314694 0  0.3727949441736886 0.2687069143756727 0  0.3265012756581966 0.2702065959162994 0  0.3425185051143286 0.277559411241074 0  0.3236350239119228 0.2946877384927431 0  0.3871536388992142 0.2768042805511501 0  0.3656958473839882 0.2539056765427533 0  0.3826544750917113 0.2574975795502557 0  0.3742999258550256 0.2455889756585279 0  0.3009672322348927 0.299853464475565 0  0.3119706532029335 0.280741853274607 0  0.29813678539982 0.236276478175315 0  0.3103932646053297 0.2435733951751842 0  0.2950877208402625 0.2480324151406079 0  0.3830052789765099 0.2465504596596307 0  0.3418128473615318 0.2384788409515084 0  0.353800124058392 0.2447246903927239 0  0.3411309613953146 0.2501451311933366 0  0.2941337443604631 0.2779157781414069 0  0.2609061472235815 0.2623077995666049 0  0.250265698216607 0.2591459325753045 0  0.2578547799253117 0.2736699879086193 0  0.3249956812055901 0.3123726632318911 0  0.3425309117203542 0.2940518961451331 0  0.3511864556906398 0.3079593845701901 0  0.3803545031770169 0.2233799225275491 0  0.3909674209965625 0.2226356941037057 0  0.3868315570898186 0.2161590584307608 0  0.2959355069777989 0.2600507343559471 0  0.3100661524210835 0.2650982647042849 0  0.2813918607378073 0.2642650598195126 0  0.2764818109814328 0.2785134123591192 0  0.2595321800985562 0.2853145787115269 0  0.2799076752212695 0.2955946972235118 0  0.3386094217007701 0.21 0  0.3460777239378666 0.21 0  0.3422532254316368 0.2186305831010365 0  0.3096074608005889 0.2332284277153185 0  0.3641563190507836 0.3179653487982807 0  0.3419145640611154 0.3257454339814842 0  0.34764135913642 0.3491933721956422 0  0.3236197880522565 0.342390365483443 0  0.3054340412842468 0.3221719107153626 0  0.3342575907952841 0.223845352414335 0  0.330395134354505 0.2334931151381134 0  0.3420126050355882 0.2289014753216907 0  0.3527566348295874 0.2550544260512217 0  0.3422261770849799 0.2620435439696853 0  0.3570962000964671 0.2658531600023138 0  0.3298536818655586 0.2450564271365737 0  0.3717783033973493 0.3492929215517201 0  0.3024586873317863 0.2302383467013988 0  0.319313320275104 0.2539540926591672 0  0.2854688561834498 0.2412236914981949 0  0.2897734241776366 0.2309782844302881 0  0.3056884213926414 0.2536577882881167 0  0.2627897304119148 0.25271037528669 0  0.3647216780759439 0.2309636620771321 0  0.3532661195270175 0.2336617303183129 0  0.3647485037428231 0.2414648470797462 0  0.3436434970543172 0.3743236175823911 0  0.3765649579409498 0.2346032306023708 0  0.3862411203249935 0.2293080201888169 0  0.3125541355310679 0.2174284626835578 0  0.3272784643395017 0.2174232629457372 0  0.3348752705822316 0.2165201420472217 0  0.3497998287380586 0.2162289176852799 0  0.319877191385679 0.2308174713545124 0  0.3199271849027431 0.2215499206710377 0  0.3133403253306649 0.2254657033957812 0  0.3198433526340244 0.2406043114931417 0  0.3264603545297456 0.2254677777931837 0  0.3498118750564168 0.2244634883974543 0  0.3572801772935104 0.2173273935815939 0  0.3582214469498746 0.2931659544846034 0  0.267810768800799 0.2705998356288453 0  0.357905755861004 0.2256377483552234 0  0.3052148703286661 0.2238647990797835 0  0.3050207387251377 0.2160025078068285 0  0.2863686241214745 0.2524447136573785 0  0.364747590224077 0.2216658739063822 0  0.3716385577875085 0.2254972730720332 0  0.3871533862418662 0.2377916209307866 0  0.2751288526855082 0.2504894696471402 0  0.2973772572263381 0.2175617982546508 0  0.3312445077953667 0.2576480961126658 0  0.2703064389008618 0.2603298038584663 0  0.2969986277115119 0.2264901249637967 0  0.2888197773682229 0.2217624015035644 0  0.3199311709679444 0.2151099596031206 0  </DataArray>
</Points>
<Cells>
<DataArray  type="UInt32"  Name="connectivity"  format="ascii">0 1 2  3 1 4  5 6 7  3 8 4  6 7 9  5 7 10  11 7 10  11 2 4  1 2 4  11 4 10  6 12 9  8 5 10  8 4 10  13 14 15  16 17 18  19 14 15  20 21 22  23 24 18  25 26 27  21 22 28  29 30 31  23 24 32  33 34 35  24 16 18  23 36 18  37 36 38  39 40 41  42 32 43  42 32 44  45 46 47  48 49 50  25 26 51  37 36 18  45 32 47  52 53 54  55 36 56  20 21 15  37 17 18  57 58 59  30 31 60  61 17 62  45 32 44  29 63 58  64 52 54  25 51 65  29 58 59  66 16 43  25 67 68  23 36 56  26 27 69  23 32 47  24 32 43  33 34 70  25 67 27  71 72 73  55 74 54  36 53 38  71 75 73  29 30 72  39 40 76  66 26 69  8 5 77  6 12 78  64 74 54  48 50 79  19 21 15  49 50 80  57 78 79  81 82 83  29 63 31  81 51 84  81 82 85  86 87 80  81 58 84  13 14 88  30 72 73  66 26 84  45 46 89  57 50 59  71 90 72  13 17 62  91 77 92  24 16 43  42 44 93  71 94 90  86 50 59  71 94 95  96 75 28  13 17 88  66 43 69  97 44 93  57 78 85  91 98 92  61 16 17  52 14 88  66 63 84  3 98 92  22 75 73  91 77 83  71 95 75  66 63 99  55 36 53  26 51 84  97 70 100  86 87 90  3 8 92  86 72 59  12 48 79  46 35 89  66 16 99  91 98 101  8 77 92  22 75 28  96 75 76  52 88 38  25 68 101  12 78 79  57 50 79  97 44 100  39 75 76  63 58 84  61 60 62  102 68 101  44 100 89  37 17 88  86 50 80  20 30 73  97 67 93  5 77 103  20 22 73  6 78 103  29 72 59  61 16 99  45 44 89  63 31 99  91 51 83  102 98 101  42 27 93  33 70 100  20 30 60  82 77 83  86 90 72  81 51 83  82 78 85  39 95 75  81 58 85  57 58 85  94 87 90  20 15 62  42 43 69  25 101 65  82 77 103  82 78 103  91 51 65  61 31 60  67 27 93  5 6 103  55 53 54  13 15 62  52 53 38  42 27 69  61 31 99  20 60 62  91 101 65  33 35 89  33 100 89  37 88 38  </DataArray>
<DataArray  type="UInt32"  Name="offsets"  format="ascii">3 6 9 12 15 18 21 24 27 30 33 36 39 42 45 48 51 54 57 60 63 66 69 72 75 78 81 84 87 90 93 96 99 102 105 108 111 114 117 120 123 126 129 132 135 138 141 144 147 150 153 156 159 162 165 168 171 174 177 180 183 186 189 192 195 198 201 204 207 210 213 216 219 222 225 228 231 234 237 240 243 246 249 252 255 258 261 264 267 270 273 276 279 282 285 288 291 294 297 300 303 306 309 312 315 318 321 324 327 330 333 336 339 342 345 348 351 354 357 360 363 366 369 372 375 378 381 384 387 390 393 396 399 402 405 408 411 414 417 420 423 426 429 432 435 438 441 444 447 450 453 456 459 462 465 468 471 474 477 480 483 486 489 492 495 498 501 </DataArray>
<DataArray  type="UInt8"  Name="types"  format="ascii">5 5 5 5 5 5 5 5 5 5 5 5 5 5 5 5 5 5 5 5 5 5 5 5 5 5 5 5 5 5 5 5 5 5 5 5 5 5 5 5 5 5 5 5 5 5 5 5 5 5 5 5 5 5 5 5 5 5 5 5 5 5 5 5 5 5 5 5 5 5 5 5 5 5 5 5 5 5 5 5 5 5 5 5 5 5 5 5 5 5 5 5 5 5 5 5 5 5 5 5 5 5 5 5 5 5 5 5 5 5 5 5 5 5 5 5 5 5 5 5 5 5 5 5 5 5 5 5 5 5 5 5 5 5 5 5 5 5 5 5 5 5 5 5 5 5 5 5 5 5 5 5 5 5 5 5 5 5 5 5 5 5 5 5 5 5 5 </DataArray>
</Cells>
<PointData  Vectors="f_43-0"> 
<DataArray  type="Float64"  Name="f_43-0"  NumberOfComponents="3" format="ascii">2.2170742954811515e-06 -1.9729807894668337e-05 0.0000000000000000e+00  1.1039403291515914e-05 -2.3667804615878982e-05 0.0000000000000000e+00  9.0445889973120372e-06 -2.7635224254622785e-05 0.0000000000000000e+00  2.0217347481847559e-05 -2.9760087468932409e-05 0.0000000000000000e+00  1.6147067854201058e-05 -3.1360455359068443e-05 0.0000000000000000e+00  2.6269825513073025e-05 -4.5063640769542473e-05 0.0000000000000000e+00  2.9205374911899468e-05 -5.3904678529755011e-05 0.0000000000000000e+00  1.9324151431253892e-05 -4.5381236099813960e-05 0.0000000000000000e+00  2.3266364821007575e-05 -3.7003033174875646e-05 0.0000000000000000e+00  2.5065264050797081e-05 -5.6146065356396579e-05 0.0000000000000000e+00  1.9914346598324717e-05 -3.8571141555399788e-05 0.0000000000000000e+00  1.3957836422967197e-05 -3.5660104275549296e-05 0.0000000000000000e+00  3.2060082274458366e-05 -6.3494515964084770e-05 0.0000000000000000e+00  4.6314996937159092e-01 -3.1540091921925577e-02 0.0000000000000000e+00  4.7290258733899498e-01 -2.3389931654969793e-02 0.0000000000000000e+00  4.5683449108349661e-01 -2.1451053035989095e-02 0.0000000000000000e+00  4.4644046414749139e-01 -6.4269399730637042e-02 0.0000000000000000e+00  4.5993062777874683e-01 -4.6720611803726990e-02 0.0000000000000000e+00  4.8701189613693102e-01 -5.8942937360022915e-02 0.0000000000000000e+00  4.6576469100331463e-01 -1.6726591354403304e-02 0.0000000000000000e+00  4.3587824971322842e-01 -1.9050985896489923e-02 0.0000000000000000e+00  4.4891887660151369e-01 -1.3046446615919376e-02 0.0000000000000000e+00  4.2247908085459868e-01 -1.0803530379944314e-02 0.0000000000000000e+00  5.1253265569760875e-01 -7.1043608515152068e-02 0.0000000000000000e+00  4.7252083779491688e-01 -7.9471463499400166e-02 0.0000000000000000e+00  2.7578753249509652e-01 -6.2122832695838716e-02 0.0000000000000000e+00  3.4398001372599141e-01 -6.3328895697076129e-02 0.0000000000000000e+00  3.3828245967900922e-01 -9.4793642941915723e-02 0.0000000000000000e+00  4.2886519145698382e-01 -8.6296113183571468e-03 0.0000000000000000e+00  3.7210137994938636e-01 -2.1674390447080388e-02 0.0000000000000000e+00  4.0670277190027843e-01 -1.9848907907067483e-02 0.0000000000000000e+00  4.0987324951952819e-01 -3.4904577396343790e-02 0.0000000000000000e+00  4.8025045060777799e-01 -1.0179182731227909e-01 0.0000000000000000e+00  4.2365750539989400e-01 -1.4079236338542214e-01 0.0000000000000000e+00  3.9119876888590016e-01 -1.3810723534641578e-01 0.0000000000000000e+00  5.1755771827195107e-01 -1.2532079170424418e-01 0.0000000000000000e+00  5.0097397637446595e-01 -4.6979003743866057e-02 0.0000000000000000e+00  4.7800087897243659e-01 -4.4183188292019809e-02 0.0000000000000000e+00  4.8540986977560707e-01 -3.3964905493007236e-02 0.0000000000000000e+00  2.7449514325427615e-01 -1.4556120195577055e-03 0.0000000000000000e+00  2.6606180206402519e-01 -9.8545719984928634e-04 0.0000000000000000e+00  1.5426010732348777e-01 -3.7906114307069107e-04 0.0000000000000000e+00  4.0591359463308013e-01 -1.0630744989922625e-01 0.0000000000000000e+00  4.3063340757618901e-01 -8.6292630269332843e-02 0.0000000000000000e+00  4.2981215872329481e-01 -1.2649537588380563e-01 0.0000000000000000e+00  5.0540481422018502e-01 -1.1422159611077862e-01 0.0000000000000000e+00  5.6191468237658238e-01 -9.9209828320212967e-02 0.0000000000000000e+00  5.3716329031481280e-01 -8.5021789431933198e-02 0.0000000000000000e+00  3.4816459411763433e-05 -7.3794955940370080e-05 0.0000000000000000e+00  3.7465537644143183e-05 -8.4773641769578503e-05 0.0000000000000000e+00  1.9016368541772599e-01 -2.6619043498866514e-03 0.0000000000000000e+00  2.8849790665509462e-01 -4.1001887315733579e-02 0.0000000000000000e+00  4.8604904298705182e-01 -2.4746247012165965e-02 0.0000000000000000e+00  4.9770103370640617e-01 -3.1119028140261715e-02 0.0000000000000000e+00  4.9720431127724346e-01 -1.8112474531283927e-02 0.0000000000000000e+00  5.0929025902088398e-01 -2.7622567433051672e-02 0.0000000000000000e+00  5.2066150480674100e-01 -4.6485244234225280e-02 0.0000000000000000e+00  2.5614456656617896e-01 -8.3720935857455724e-03 0.0000000000000000e+00  3.3119766108665899e-01 -2.3210510658689881e-02 0.0000000000000000e+00  3.1360382537639014e-01 -1.1049687568212944e-02 0.0000000000000000e+00  4.2992740599773965e-01 -2.8509026394561911e-02 0.0000000000000000e+00  4.3578333968390554e-01 -4.2650229511560118e-02 0.0000000000000000e+00  4.4837985309330852e-01 -3.0787402319124885e-02 0.0000000000000000e+00  3.8186703862127236e-01 -4.0916132028008791e-02 0.0000000000000000e+00  4.8632789554539713e-01 -1.2543117505495834e-02 0.0000000000000000e+00  2.5012886045239852e-01 -3.9938605943946423e-02 0.0000000000000000e+00  3.9847998626541475e-01 -6.5667495066154533e-02 0.0000000000000000e+00  2.7099389820627123e-01 -9.2281123276209340e-02 0.0000000000000000e+00  2.1452659570119900e-01 -5.3853198466674308e-02 0.0000000000000000e+00  3.8278516128811779e-01 -8.6136264165473944e-02 0.0000000000000000e+00  3.2355805301475676e-01 -1.3616180593873825e-01 0.0000000000000000e+00  3.4681618312197865e-01 -5.8555186584758707e-03 0.0000000000000000e+00  3.5808559634721127e-01 -1.0921879973371757e-02 0.0000000000000000e+00  4.0389828523028232e-01 -1.1965153730153567e-02 0.0000000000000000e+00  4.6138966143798782e-01 -9.1718880186892129e-03 0.0000000000000000e+00  3.7710114547716511e-01 -5.2304015686895217e-03 0.0000000000000000e+00  3.4069494018698804e-01 -2.4546009499687681e-03 0.0000000000000000e+00  1.4311185644987612e-01 -5.6191122656481405e-03 0.0000000000000000e+00  1.5932715848745452e-01 -3.4688933433704361e-03 0.0000000000000000e+00  1.4881023672796029e-01 -2.0868881698772228e-03 0.0000000000000000e+00  1.4978725059011389e-01 -1.1484798453830411e-03 0.0000000000000000e+00  2.9585636110805391e-01 -2.6474970328082551e-02 0.0000000000000000e+00  2.1048721367441273e-01 -9.8978048722145832e-03 0.0000000000000000e+00  2.4003543936028673e-01 -1.9823871844974583e-02 0.0000000000000000e+00  3.4879884128026989e-01 -4.5479989576473860e-02 0.0000000000000000e+00  2.6338055352352002e-01 -1.3316784423568340e-02 0.0000000000000000e+00  2.7634693983447128e-01 -5.1843838951927028e-03 0.0000000000000000e+00  1.7308060951086940e-01 -1.1305403894661524e-03 0.0000000000000000e+00  4.7416768436030077e-01 -3.3122190886990747e-02 0.0000000000000000e+00  4.8140028883753977e-01 -1.3083139302564242e-01 0.0000000000000000e+00  2.9419274759196057e-01 -4.3417862377775496e-03 0.0000000000000000e+00  2.0649747258088000e-01 -2.0659966951713401e-02 0.0000000000000000e+00  1.1062786848709241e-01 -4.7820364946152783e-03 0.0000000000000000e+00  3.5304487262178852e-01 -1.1471736789184069e-01 0.0000000000000000e+00  2.4695992221519364e-01 -1.9882346390512383e-03 0.0000000000000000e+00  2.9817752820269156e-01 -2.6337364021501368e-03 0.0000000000000000e+00  3.9840720283473485e-01 -4.6774804276851680e-03 0.0000000000000000e+00  3.2105359196366212e-01 -1.2547263775070791e-01 0.0000000000000000e+00  1.1881585842982340e-01 -8.7263087672289300e-03 0.0000000000000000e+00  4.1959335380170293e-01 -5.2594471767563121e-02 0.0000000000000000e+00  4.0354851427518168e-01 -1.3762943304402173e-01 0.0000000000000000e+00  2.0611459293494405e-01 -3.3106482708030405e-02 0.0000000000000000e+00  1.4045020335280262e-01 -2.2452217340999833e-02 0.0000000000000000e+00  1.1199837888299949e-01 -2.2670497762492308e-03 0.0000000000000000e+00  </DataArray> 
</PointData> 
</Piece>
</UnstructuredGrid>
</VTKFile>