<?xml version="1.0"?>
<VTKFile type="UnstructuredGrid"  version="0.1"  >
<UnstructuredGrid>
<Piece  NumberOfPoints="103" NumberOfCells="170">
<Points>
<DataArray  type="Float64"  NumberOfComponents="3"  format="ascii">0.3012679105156187 0.19 0  0.3006558810093873 0.1999966199048318 0  0.2950977245127906 0.1961819304477774 0  0.301267910515333 0.21 0  0.2950977245128307 0.2038180695522663 0  0.2607803159922026 0.2000727136295815 0  0.2677053789419034 0.1964246479135325 0  0.267698176732111 0.2039977513680092 0  0.2751288526855082 0.20000000000002 0  0.2603913042767976 0.1945999920783741 0  0.2639263993299336 0.19 0  0.25 0.2 0  0.2497468076502589 0.2050254481002335 0  0.2550657455369551 0.2034088125358657 0  0.2825131256993216 0.2035478995978015 0  0.2825051229162361 0.1959834479681729 0  0.2894621222999649 0.1998691686390484 0  0.2713947015670686 0.19 0  0.2788630038040554 0.21 0  0.2863313060411479 0.21 0  0.2937996082784807 0.19 0  0.2937996082782405 0.21 0  0.2601812407614425 0.2056861609747042 0  0.2497468076502614 0.1949745518997913 0  0.2548908499171161 0.1966940311614271 0  0.2751288526855081 0.205697194228819 0  0.2751288526856362 0.1943028057711959 0  0.2895549462647731 0.1944069323160756 0  0.2564580970927985 0.19 0  0.2525889069107169 0.1926036384190297 0  0.2897864851748124 0.2055930218738881 0  0.25645809709277 0.21 0  0.25261805618068 0.2074135021971937 0  0.2639263993298655 0.21 0  0.271394701566961 0.21 0  0.2863313060413428 0.19 0  0.2788630038042048 0.19 0  0.2489897948556636 0.19 0  0.2489897948556636 0.21 0  0.2802365149396702 0.2293267412254819 0  0.2888197773682229 0.2217624015035644 0  0.2799011483571476 0.2201540359780956 0  0.2798983539554935 0.1725715317274126 0  0.2887875715604008 0.1784526411902859 0  0.2798265752054099 0.1801908109055989 0  0.2607466101664424 0.2266930975791233 0  0.271385042995999 0.2220255791858506 0  0.2640363109795177 0.2179944263838653 0  0.2544808243315743 0.2458504951732927 0  0.2658768459325225 0.2418747601129979 0  0.2588244756332078 0.23611127323402 0  0.2516468834717856 0.2324930308055588 0  0.2510679533716966 0.2249523323210773 0  0.2433956710264305 0.2381734167068584 0  0.2460613805257083 0.2485222416480207 0  0.2507569858396673 0.2399489856244889 0  0.2607333124992295 0.173299215235651 0  0.2711961111491841 0.1784474567953763 0  0.2640363109795686 0.1820055736160818 0  0.250265698216607 0.2591459325753045 0  0.2627897304119148 0.25271037528669 0  0.2397046897252064 0.2463916348380001 0  0.2693249379754523 0.232253714048252 0  0.246996525252926 0.2170682926548348 0  0.2561841824185058 0.2195000859865352 0  0.2469965252529372 0.1829317073451959 0  0.2561841824184873 0.1804999140134954 0  0.2510789311637825 0.1750218956597876 0  0.2854688561834498 0.2412236914981949 0  0.2752342263051384 0.2394149830158712 0  0.2897734241776366 0.2309782844302881 0  0.2352133972703547 0.2354967132658811 0  0.2400332147833751 0.2299556624715287 0  0.2898993665208313 0.2148884498665536 0  0.2825971549226016 0.2141870669404288 0  0.2533462554466219 0.2143516991142523 0  0.2533462554466303 0.18564830088576 0  0.2234150974215506 0.2441784247426195 0  0.2296339016331197 0.2402719738031125 0  0.2306200006656481 0.2483744735801409 0  0.2900654571599118 0.1851244352956092 0  0.2825971549227736 0.1858129330595456 0  0.2693200344911409 0.1703624615729042 0  0.2370670604668411 0.2561437100875122 0  0.2439893735792577 0.2237683615780412 0  0.2254320944728471 0.256276132616746 0  0.2751288526855082 0.2504894696471402 0  0.2973772572263381 0.2175617982546508 0  0.2973900081628705 0.1824599091601672 0  0.2460399618407353 0.2294379412176375 0  0.235672688557912 0.2416805760911849 0  0.2220625618530342 0.2502300158941232 0  0.2166911463435495 0.2471317900544655 0  0.2155707468285289 0.2556953171569842 0  0.2754241708482248 0.2153487639899751 0  0.3050224637686886 0.1840003691157356 0  0.3052148703289762 0.176135200920133 0  0.2751288526856362 0.184558060069257 0  0.2968565228222139 0.1734776848403526 0  0.2692521927396536 0.2151979606124073 0  0.2691876260717925 0.1848526873929683 0  0.2601922482113177 0.2140493078607503 0  0.260192248211366 0.1859506921392313 0  </DataArray>
</Points>
<Cells>
<DataArray  type="UInt32"  Name="connectivity"  format="ascii">0 1 2  3 1 4  5 6 7  8 6 7  5 6 9  10 6 9  11 12 13  8 14 15  16 14 15  17 10 6  18 19 14  0 20 2  21 3 4  5 7 22  11 23 24  8 7 25  8 15 26  11 13 24  16 15 27  18 14 25  8 14 25  28 24 29  8 6 26  17 6 26  19 14 30  16 14 30  31 13 32  33 34 7  35 36 15  5 13 24  12 13 32  33 7 22  28 24 9  34 7 25  31 13 22  36 15 26  23 24 29  1 4 2  16 4 2  35 15 27  10 28 9  31 33 22  5 24 9  20 35 27  19 21 30  36 17 26  34 18 25  5 13 22  37 23 29  38 12 32  20 2 27  21 4 30  16 4 30  16 2 27  37 28 29  38 31 32  39 40 41  42 43 44  45 46 47  48 49 50  45 51 52  53 54 55  56 57 58  48 59 60  61 53 54  45 46 62  39 46 41  42 57 44  63 64 52  39 46 62  65 66 67  39 68 69  39 68 70  39 40 70  45 62 50  71 72 53  40 73 74  63 64 75  65 66 76  48 49 60  77 78 79  43 80 81  42 57 82  45 64 52  40 41 74  83 61 54  45 64 47  56 66 67  43 44 81  84 63 52  48 54 55  83 61 79  56 66 58  56 57 82  45 51 50  48 50 55  83 85 79  86 49 60  39 62 69  48 59 54  21 3 87  49 62 50  0 20 88  72 53 89  83 59 54  71 53 90  86 49 69  78 79 90  77 79 91  92 93 91  86 68 69  51 53 89  46 41 94  0 88 95  96 88 95  57 44 97  21 87 73  20 88 80  61 53 90  96 88 98  61 79 90  49 62 69  33 34 99  17 10 100  85 79 91  33 47 99  10 58 100  85 93 91  40 87 73  43 88 98  34 18 94  36 17 97  43 88 80  51 50 55  19 21 73  38 31 75  20 35 80  37 28 76  33 47 101  51 53 55  10 58 102  31 75 101  38 63 75  28 76 102  37 65 76  84 52 89  64 75 101  72 84 89  78 71 90  66 76 102  64 47 101  92 77 91  66 58 102  18 94 74  36 97 81  31 33 101  10 28 102  18 19 74  35 36 81  19 73 74  35 80 81  46 47 99  57 58 100  51 52 89  41 94 74  44 97 81  46 94 99  57 97 100  34 94 99  17 97 100  </DataArray>
<DataArray  type="UInt32"  Name="offsets"  format="ascii">3 6 9 12 15 18 21 24 27 30 33 36 39 42 45 48 51 54 57 60 63 66 69 72 75 78 81 84 87 90 93 96 99 102 105 108 111 114 117 120 123 126 129 132 135 138 141 144 147 150 153 156 159 162 165 168 171 174 177 180 183 186 189 192 195 198 201 204 207 210 213 216 219 222 225 228 231 234 237 240 243 246 249 252 255 258 261 264 267 270 273 276 279 282 285 288 291 294 297 300 303 306 309 312 315 318 321 324 327 330 333 336 339 342 345 348 351 354 357 360 363 366 369 372 375 378 381 384 387 390 393 396 399 402 405 408 411 414 417 420 423 426 429 432 435 438 441 444 447 450 453 456 459 462 465 468 471 474 477 480 483 486 489 492 495 498 501 504 507 510 </DataArray>
<DataArray  type="UInt8"  Name="types"  format="ascii">5 5 5 5 5 5 5 5 5 5 5 5 5 5 5 5 5 5 5 5 5 5 5 5 5 5 5 5 5 5 5 5 5 5 5 5 5 5 5 5 5 5 5 5 5 5 5 5 5 5 5 5 5 5 5 5 5 5 5 5 5 5 5 5 5 5 5 5 5 5 5 5 5 5 5 5 5 5 5 5 5 5 5 5 5 5 5 5 5 5 5 5 5 5 5 5 5 5 5 5 5 5 5 5 5 5 5 5 5 5 5 5 5 5 5 5 5 5 5 5 5 5 5 5 5 5 5 5 5 5 5 5 5 5 5 5 5 5 5 5 5 5 5 5 5 5 5 5 5 5 5 5 5 5 5 5 5 5 5 5 5 5 5 5 5 5 5 5 5 5 </DataArray>
</Cells>
<PointData  Vectors="f_43-0"> 
<DataArray  type="Float64"  Name="f_43-0"  NumberOfComponents="3" format="ascii">3.0447895070783707e-06 -4.7956656666541418e-06 0.0000000000000000e+00  6.5422362066483132e-06 -9.8700569654597850e-06 0.0000000000000000e+00  4.5951118622442185e-06 -5.8417038455470679e-06 0.0000000000000000e+00  1.0339394649413637e-05 -1.5799443321590340e-05 0.0000000000000000e+00  7.0790794052481428e-06 -1.0081109452768508e-05 0.0000000000000000e+00  5.8394961991295025e-07 -5.3919757988156846e-07 0.0000000000000000e+00  1.3887378933981871e-06 7.5621925426540382e-07 0.0000000000000000e+00  2.4444921869948278e-06 -3.7181379256032427e-06 0.0000000000000000e+00  3.0250795925002298e-06 -2.6010562166335073e-06 0.0000000000000000e+00  3.2601904620285305e-07 2.6464427792190436e-06 0.0000000000000000e+00  4.2014753938485840e-07 4.7200846199504109e-06 0.0000000000000000e+00  0.0000000000000000e+00 0.0000000000000000e+00 0.0000000000000000e+00  0.0000000000000000e+00 0.0000000000000000e+00 0.0000000000000000e+00  -1.2235084988611747e-07 -1.7205684254036807e-06 0.0000000000000000e+00  4.9757194640499266e-06 -6.2941257403956298e-06 0.0000000000000000e+00  3.1361727005477637e-06 -2.0265047771954853e-06 0.0000000000000000e+00  5.0352568305856074e-06 -6.0874591430791030e-06 0.0000000000000000e+00  8.5789592014034023e-07 3.6021754972247788e-06 0.0000000000000000e+00  5.8310269816749820e-06 -9.3051698351438391e-06 0.0000000000000000e+00  7.4067659004654763e-06 -1.1108789898043686e-05 0.0000000000000000e+00  2.5352416847337574e-06 -2.1521264891796459e-06 0.0000000000000000e+00  8.9112146179724585e-06 -1.3280688190011966e-05 0.0000000000000000e+00  1.2309765506426803e-06 -3.8644749147701294e-06 0.0000000000000000e+00  0.0000000000000000e+00 0.0000000000000000e+00 0.0000000000000000e+00  -3.9132903245227084e-07 1.4133995642015199e-06 0.0000000000000000e+00  4.1506309980033683e-06 -5.9402184763583026e-06 0.0000000000000000e+00  1.9579959356796723e-06 5.8332263317812185e-07 0.0000000000000000e+00  3.4813040853016114e-06 -3.1258377934531512e-06 0.0000000000000000e+00  5.0945437906102211e-07 4.8078234949634270e-06 0.0000000000000000e+00  -1.3823135143889467e-07 2.3936721065066679e-06 0.0000000000000000e+00  6.7690555810296417e-06 -9.4533530653737976e-06 0.0000000000000000e+00  1.6085218868798700e-06 -5.6544936709424927e-06 0.0000000000000000e+00  1.8491870882089493e-07 -2.6711705486900543e-06 0.0000000000000000e+00  2.6539333059074697e-06 -6.8775016124770076e-06 0.0000000000000000e+00  4.1979131387610033e-06 -7.9011004167630321e-06 0.0000000000000000e+00  1.9962708083785126e-06 1.3644854693056779e-07 0.0000000000000000e+00  1.4321570232014906e-06 2.0551670858319030e-06 0.0000000000000000e+00  0.0000000000000000e+00 0.0000000000000000e+00 0.0000000000000000e+00  0.0000000000000000e+00 0.0000000000000000e+00 0.0000000000000000e+00  6.4401153629234431e-02 -1.1420296451338189e-02 0.0000000000000000e+00  5.4881182128737521e-02 -3.7160644530408139e-03 0.0000000000000000e+00  4.4930300517629286e-02 -4.4060226638991465e-03 0.0000000000000000e+00  6.1061249941529318e-02 1.0066241225450853e-02 0.0000000000000000e+00  5.4344133454683807e-02 3.6020938795748823e-03 0.0000000000000000e+00  4.3927950901974190e-02 4.1650743490755180e-03 0.0000000000000000e+00  3.7819598443846122e-02 -1.9954400409198450e-02 0.0000000000000000e+00  4.2016445344822864e-02 -8.5173261951464515e-03 0.0000000000000000e+00  2.3662125857068349e-02 -5.9675642221441502e-03 0.0000000000000000e+00  7.6559509906930584e-02 -4.3258894564109938e-02 0.0000000000000000e+00  7.3130169378585769e-02 -3.1410593620380317e-02 0.0000000000000000e+00  5.6410846978456365e-02 -3.3556659461796007e-02 0.0000000000000000e+00  3.7721608249309480e-02 -3.1913397213199066e-02 0.0000000000000000e+00  1.7145488544558427e-02 -1.7749871877387257e-02 0.0000000000000000e+00  4.2125198090231832e-02 -3.6121215777760889e-02 0.0000000000000000e+00  8.1600100174630569e-02 -4.8044756438112082e-02 0.0000000000000000e+00  5.8679108329089930e-02 -4.1817775963849300e-02 0.0000000000000000e+00  3.7826449617621813e-02 2.0039952235320346e-02 0.0000000000000000e+00  4.0753772530934734e-02 8.0557227052238441e-03 0.0000000000000000e+00  2.3687195499342756e-02 5.9747078119274984e-03 0.0000000000000000e+00  1.0336240762330375e-01 -4.3340368188166535e-02 0.0000000000000000e+00  8.9510103657496398e-02 -3.6456093243608934e-02 0.0000000000000000e+00  7.0506535169712642e-02 -4.5242408489936721e-02 0.0000000000000000e+00  5.9400504443493700e-02 -2.0923305809991802e-02 0.0000000000000000e+00  0.0000000000000000e+00 0.0000000000000000e+00 0.0000000000000000e+00  1.5398861465788630e-02 -9.4430072817900459e-03 0.0000000000000000e+00  0.0000000000000000e+00 0.0000000000000000e+00 0.0000000000000000e+00  1.5422086281657778e-02 9.4471386692788657e-03 0.0000000000000000e+00  1.7244796372895686e-02 1.7843236516881120e-02 0.0000000000000000e+00  8.1706836138970868e-02 -1.5691992556426677e-02 0.0000000000000000e+00  7.4657841786064730e-02 -2.1733639013371255e-02 0.0000000000000000e+00  7.3001816219958993e-02 -8.5527836537483450e-03 0.0000000000000000e+00  0.0000000000000000e+00 0.0000000000000000e+00 0.0000000000000000e+00  0.0000000000000000e+00 0.0000000000000000e+00 0.0000000000000000e+00  2.9972200358337722e-02 -7.3645012832632356e-04 0.0000000000000000e+00  2.4259265588648146e-02 -7.9371473010925934e-04 0.0000000000000000e+00  3.8393123760488228e-03 -2.2368032244228140e-03 0.0000000000000000e+00  3.8445364395847904e-03 2.2400641070265855e-03 0.0000000000000000e+00  0.0000000000000000e+00 0.0000000000000000e+00 0.0000000000000000e+00  0.0000000000000000e+00 0.0000000000000000e+00 0.0000000000000000e+00  6.7020745323546210e-02 -3.6228698576118219e-02 0.0000000000000000e+00  2.9980851417052423e-02 7.1367135868507831e-04 0.0000000000000000e+00  2.4280239954693087e-02 7.8433445139005449e-04 0.0000000000000000e+00  5.4935277072075732e-02 1.8213297654337646e-02 0.0000000000000000e+00  1.0392314026943410e-01 -4.6963347272035313e-02 0.0000000000000000e+00  0.0000000000000000e+00 0.0000000000000000e+00 0.0000000000000000e+00  1.0456313815691176e-01 -3.7486884184432474e-02 0.0000000000000000e+00  8.7216865515077624e-02 -2.5768055045467534e-02 0.0000000000000000e+00  4.4185719660849741e-02 -1.2050426828668533e-03 0.0000000000000000e+00  4.4139818434250737e-02 1.1791924245404702e-03 0.0000000000000000e+00  1.7713755117040396e-02 -2.0611459782115787e-02 0.0000000000000000e+00  3.9433194917837054e-02 -2.9491192107902450e-02 0.0000000000000000e+00  6.0488220158977833e-02 -2.4106802994671172e-02 0.0000000000000000e+00  0.0000000000000000e+00 0.0000000000000000e+00 0.0000000000000000e+00  9.4538561463957324e-02 -2.2534560725644869e-02 0.0000000000000000e+00  2.5941152227431857e-02 -1.7529038488292719e-03 0.0000000000000000e+00  3.8919583346752940e-02 5.7613068945474178e-04 0.0000000000000000e+00  6.6836836863539792e-02 2.5019554860255845e-03 0.0000000000000000e+00  2.6149748842040448e-02 1.8278378578836213e-03 0.0000000000000000e+00  6.9501540858029023e-02 4.5639036193634817e-03 0.0000000000000000e+00  2.1133458497313531e-02 -2.2767132698036565e-03 0.0000000000000000e+00  2.0942972250486230e-02 2.2458656220356215e-03 0.0000000000000000e+00  1.0023478107197104e-02 -2.0534775182045072e-03 0.0000000000000000e+00  1.0035079886020397e-02 2.0539235468740253e-03 0.0000000000000000e+00  </DataArray> 
</PointData> 
</Piece>
</UnstructuredGrid>
</VTKFile>