<?xml version="1.0"?>
<VTKFile type="UnstructuredGrid"  version="0.1"  >
<UnstructuredGrid>
<Piece  NumberOfPoints="101" NumberOfCells="169">
<Points>
<DataArray  type="Float64"  NumberOfComponents="3"  format="ascii">0.6 0.21 0  0.5925316977628483 0.21 0  0.5955705746706843 0.2069223055301326 0  0.5887803774232762 0.2001272386983733 0  0.5814408164431408 0.2041285596160068 0  0.5893814947531364 0.2056233639521408 0  0.6 0.2 0  0.6 0.1950000000000217 0  0.594380730180568 0.1966558399668133 0  0.5946539510196798 0.2024302972968126 0  0.6 0.2050000000000054 0  0.5775950932886138 0.21 0  0.5850633955257281 0.21 0  0.6300528284996487 0.2292604486710743 0  0.65429728832161 0.2353880751391984 0  0.6456429596876728 0.2209784072651823 0  0.5740383564454857 0.232486177523615 0  0.5800331369475803 0.2220172718503647 0  0.5872716114964233 0.2289047791562547 0  0.589683001657349 0.3059206033515077 0  0.629251049118315 0.3129131677620721 0  0.6129037791821019 0.2898142990521698 0  0.5669464924360815 0.2475839849813879 0  0.5841951273902199 0.2421589553533847 0  0.5678918321244223 0.2848057098346606 0  0.5916500441695769 0.2809526698769227 0  0.5813292444071699 0.2563523755659055 0  0.5593867837568711 0.2625481287604455 0  0.6158241656144056 0.2465955912391796 0  0.6368758304361363 0.2529361994816268 0  0.6156282497854896 0.2673949998438289 0  0.5926483197196849 0.2655989755524508 0  0.6034720826395079 0.3406552446218118 0  0.5561563723763112 0.3041501920577169 0  0.7014764931779993 0.1925000000000107 0  0.685561679424891 0.2295161340218305 0  0.6773925486195326 0.2026632733038183 0  0.6622141672544596 0.2596384679938497 0  0.5683897549737816 0.3290580395153129 0  0.6341981541449615 0.3582841585921612 0  0.6186516859309905 0.2076004596739355 0  0.6330574554272607 0.20858417289079 0  0.6200567937109939 0.1981193972299755 0  0.5688911489504639 0.2221570651130901 0  0.6659720908852078 0.2972353895876497 0  0.6940661166801609 0.2673943882596362 0  0.5989004035231642 0.2514987524731583 0  0.596265848881424 0.2354323641502947 0  0.6295540558938247 0.1924839069479658 0  0.6341710204839701 0.1765827244303529 0  0.6426099985752125 0.1947200777786613 0  0.615208009837415 0.2301771304243292 0  0.5487739828661812 0.2837987172973246 0  0.6210712537558437 0.2177951339896733 0  0.6711932754123612 0.1788117674793375 0  0.6570334029219593 0.3356135508988682 0  0.5631143150331265 0.2366473934541688 0  0.5768392741880191 0.2703425200264898 0  0.6100254542261326 0.2029134597827689 0  0.6109529519469615 0.19670324045761 0  0.5740261188292279 0.2158012409855351 0  0.6035153318756115 0.216380925869335 0  0.6045977536612152 0.2079044120944432 0  0.6993284284288891 0.3008982894693075 0  0.6641604129055072 0.2170430078016702 0  0.7176052736190859 0.2162836958912044 0  0.5962264926010817 0.2155692304460942 0  0.5886496198982827 0.2178532325665078 0  0.5869673343225223 0.41 0  0.5770529515268702 0.3629450529032476 0  0.6084037118460524 0.3780069571238127 0  0.5963374227678123 0.2233833965505087 0  0.6048429996566183 0.2280441552220857 0  0.7236859362722395 0.2517828338101294 0  0.6916151138480078 0.41 0  0.7140255670996881 0.3646166311524474 0  0.6689331958774321 0.3716842215281515 0  0.6209583882721262 0.1847010880111589 0  0.6140419833156984 0.1920012542761988 0  0.6389246510848009 0.278450010052455 0  0.6902890633484133 0.332151151267615 0  0.6065875229028267 0.1922148945199381 0  0.6047562880647869 0.1975000000000114 0  0.6104992711520371 0.2118453231978703 0  0.6513011150928492 0.1835167781725089 0  0.6503345442188976 0.208122535960376 0  0.6603908909116775 0.196660215430242 0  0.6107068242365286 0.2205343762889329 0  0.6065667631161428 0.2400998453881159 0  0.556227780909367 0.2515606281824664 0  0.6383613676644679 0.41 0  0.5588244563271773 0.225349035787779 0  0.5662965898088369 0.2290837557773043 0  0.7294932489647475 0.2840789881590486 0  0.5811564300792245 0.2152441767609544 0  0.6043492189278221 0.2025000000000026 0  0.6537520553764576 0.1680442900620985 0  0.6385847074107548 0.1562173919888177 0  0.6641520523959832 0.1503720468916702 0  0.6112872589661165 0.1855979267337469 0  0.7279457694224267 0.3237962213587685 0  </DataArray>
</Points>
<Cells>
<DataArray  type="UInt32"  Name="connectivity"  format="ascii">0 1 2  3 4 5  6 7 8  6 9 8  6 10 9  9 2 5  1 2 5  11 12 4  12 4 5  10 9 2  12 1 5  3 9 5  3 9 8  0 10 2  13 14 15  16 17 18  19 20 21  16 22 23  19 24 25  26 27 22  13 28 29  30 25 31  19 20 32  19 24 33  16 23 18  34 35 36  37 35 14  13 14 29  19 32 38  20 32 39  40 41 42  16 17 43  37 44 45  30 46 31  47 46 23  48 49 50  13 28 51  24 27 52  13 41 53  34 54 36  55 20 39  16 22 56  40 41 53  48 41 42  26 27 57  58 42 59  26 22 23  17 43 60  30 25 21  0 61 62  63 44 45  19 38 33  30 28 46  35 14 64  34 35 65  0 1 66  12 1 67  68 69 70  71 61 72  24 25 57  47 23 18  69 32 38  37 35 45  73 35 65  71 67 18  26 46 23  55 20 44  74 75 76  73 35 45  47 71 18  48 49 77  78 77 42  17 67 18  20 21 79  30 21 79  55 76 80  13 41 15  19 25 21  75 76 80  7 81 82  40 83 53  84 49 50  47 71 72  1 67 66  85 64 86  40 58 42  20 44 79  85 15 64  87 83 53  47 46 88  22 56 89  24 27 57  90 70 39  91 43 92  63 45 93  0 66 61  69 32 70  6 7 82  90 76 39  12 67 94  90 68 70  55 44 80  30 28 29  40 58 83  73 45 93  17 60 94  48 41 50  87 61 72  74 90 76  78 42 59  71 66 61  71 67 66  37 44 79  85 50 86  63 44 80  6 10 95  85 41 15  16 43 92  58 83 62  36 64 86  48 77 42  35 36 64  11 12 94  37 14 29  14 15 64  84 50 86  26 57 31  27 22 89  54 36 86  0 10 62  84 49 96  85 41 50  83 61 62  91 56 92  25 57 31  97 98 96  24 52 33  17 67 94  11 60 94  26 46 31  6 82 95  97 49 96  28 46 88  58 95 62  28 51 88  55 76 39  54 98 96  54 84 86  16 56 92  30 29 79  32 70 39  58 82 95  87 51 53  78 77 99  72 51 88  78 81 99  10 95 62  63 100 80  54 84 96  87 72 51  47 72 88  63 100 93  37 29 79  58 82 59  75 100 80  87 83 61  78 81 59  81 82 59  13 51 53  </DataArray>
<DataArray  type="UInt32"  Name="offsets"  format="ascii">3 6 9 12 15 18 21 24 27 30 33 36 39 42 45 48 51 54 57 60 63 66 69 72 75 78 81 84 87 90 93 96 99 102 105 108 111 114 117 120 123 126 129 132 135 138 141 144 147 150 153 156 159 162 165 168 171 174 177 180 183 186 189 192 195 198 201 204 207 210 213 216 219 222 225 228 231 234 237 240 243 246 249 252 255 258 261 264 267 270 273 276 279 282 285 288 291 294 297 300 303 306 309 312 315 318 321 324 327 330 333 336 339 342 345 348 351 354 357 360 363 366 369 372 375 378 381 384 387 390 393 396 399 402 405 408 411 414 417 420 423 426 429 432 435 438 441 444 447 450 453 456 459 462 465 468 471 474 477 480 483 486 489 492 495 498 501 504 507 </DataArray>
<DataArray  type="UInt8"  Name="types"  format="ascii">5 5 5 5 5 5 5 5 5 5 5 5 5 5 5 5 5 5 5 5 5 5 5 5 5 5 5 5 5 5 5 5 5 5 5 5 5 5 5 5 5 5 5 5 5 5 5 5 5 5 5 5 5 5 5 5 5 5 5 5 5 5 5 5 5 5 5 5 5 5 5 5 5 5 5 5 5 5 5 5 5 5 5 5 5 5 5 5 5 5 5 5 5 5 5 5 5 5 5 5 5 5 5 5 5 5 5 5 5 5 5 5 5 5 5 5 5 5 5 5 5 5 5 5 5 5 5 5 5 5 5 5 5 5 5 5 5 5 5 5 5 5 5 5 5 5 5 5 5 5 5 5 5 5 5 5 5 5 5 5 5 5 5 5 5 5 5 5 5 </DataArray>
</Cells>
<PointData  Vectors="f_43-0"> 
<DataArray  type="Float64"  Name="f_43-0"  NumberOfComponents="3" format="ascii">-3.1295639756514278e-04 2.0289151251680700e-03 0.0000000000000000e+00  -3.1329834495716173e-04 1.9195903525379180e-03 0.0000000000000000e+00  -2.6782576214049776e-04 1.9631341587170990e-03 0.0000000000000000e+00  -1.6907328514706877e-04 1.8626421936572598e-03 0.0000000000000000e+00  -2.2795840686445432e-04 1.7566837592196266e-03 0.0000000000000000e+00  -2.4937673865772444e-04 1.8726845103565089e-03 0.0000000000000000e+00  -1.6588334655930997e-04 2.0263859814440770e-03 0.0000000000000000e+00  -9.3099877622744359e-05 2.0251766639919166e-03 0.0000000000000000e+00  -1.1784415577025698e-04 1.9436843902707109e-03 0.0000000000000000e+00  -2.0206047084888375e-04 1.9488450578625030e-03 0.0000000000000000e+00  -2.3906326001862645e-04 2.0276270912243095e-03 0.0000000000000000e+00  -3.1389204472640159e-04 1.7025798078290711e-03 0.0000000000000000e+00  -3.1372412989930099e-04 1.8110436417541724e-03 0.0000000000000000e+00  1.6033918993733176e+00 -2.1282967215201959e-01 0.0000000000000000e+00  2.0984998777495001e+00 -2.3051990613257511e-01 0.0000000000000000e+00  1.1549086094621255e+00 -1.6047393686523218e-01 0.0000000000000000e+00  1.3320740591982074e+00 -2.0008738241655674e-01 0.0000000000000000e+00  7.1572625947833979e-01 -8.4171617171920954e-02 0.0000000000000000e+00  1.2334982391975868e+00 -1.6278100520025107e-01 0.0000000000000000e+00  2.8815160046758823e+00 -3.0010569770399392e-01 0.0000000000000000e+00  2.6975042596992527e+00 -2.2687514413943194e-01 0.0000000000000000e+00  2.9908933044462729e+00 -2.9817706291525653e-01 0.0000000000000000e+00  2.3015921019227044e+00 -3.4417201533119895e-01 0.0000000000000000e+00  2.0925277819991677e+00 -2.8835438567547961e-01 0.0000000000000000e+00  3.1263889607457149e+00 -3.8022030593648543e-01 0.0000000000000000e+00  3.0968287052650463e+00 -3.5186229484025794e-01 0.0000000000000000e+00  2.8048759364331350e+00 -3.6825010064371994e-01 0.0000000000000000e+00  2.9573940016473563e+00 -4.2046032432431873e-01 0.0000000000000000e+00  2.5223688324589673e+00 -3.0243738624228783e-01 0.0000000000000000e+00  2.8099585731803258e+00 -3.0153887851405076e-01 0.0000000000000000e+00  3.0547996776479795e+00 -3.3451360568823746e-01 0.0000000000000000e+00  3.0436365886977685e+00 -3.6185449418623111e-01 0.0000000000000000e+00  2.3511322697453294e+00 -1.9262434859818639e-01 0.0000000000000000e+00  2.9946547715842402e+00 -3.5175840507313083e-01 0.0000000000000000e+00  8.1980559037812961e-01 6.2596703165990489e-02 0.0000000000000000e+00  1.8778189387348565e+00 -1.7525804071768825e-01 0.0000000000000000e+00  5.2313585982827293e-01 -7.7620911151383715e-03 0.0000000000000000e+00  2.9530525642512067e+00 -2.6468852757806416e-01 0.0000000000000000e+00  2.6334712175989838e+00 -2.6367611995665086e-01 0.0000000000000000e+00  1.8585340468059723e+00 -1.0749889308075682e-01 0.0000000000000000e+00  1.8315603280312201e-01 -5.7315855888195932e-02 0.0000000000000000e+00  3.4096313009487494e-01 -7.1412394290771938e-02 0.0000000000000000e+00  5.5471407413907090e-02 2.2972449022687066e-02 0.0000000000000000e+00  5.9699034632895986e-01 -8.5405737655613392e-02 0.0000000000000000e+00  2.8055548956284091e+00 -2.0316208178581568e-01 0.0000000000000000e+00  2.9740648381087440e+00 -1.9925168644114832e-01 0.0000000000000000e+00  2.6776042422230537e+00 -3.3449991164369453e-01 0.0000000000000000e+00  1.7580980564829745e+00 -2.3316018044122921e-01 0.0000000000000000e+00  3.0648001021935783e-01 7.6408580413973179e-02 0.0000000000000000e+00  1.3230694195784674e+00 2.0062028725813505e-01 0.0000000000000000e+00  3.4040607521561678e-01 5.8942654513152802e-02 0.0000000000000000e+00  1.5643356078125590e+00 -2.1235335185391674e-01 0.0000000000000000e+00  3.1833947162598473e+00 -4.1601620014064161e-01 0.0000000000000000e+00  7.8918665656550069e-01 -1.4019817560910669e-01 0.0000000000000000e+00  1.4099044887872458e+00 1.6770688528995700e-01 0.0000000000000000e+00  2.2994215952379546e+00 -1.3916381396707184e-01 0.0000000000000000e+00  1.5151383725949839e+00 -2.4871391808860036e-01 0.0000000000000000e+00  3.1016894789537091e+00 -3.8912618470708166e-01 0.0000000000000000e+00  -8.2587642020305971e-03 -8.6429161607945587e-03 0.0000000000000000e+00  8.1305866011042848e-03 1.8157772694432049e-02 0.0000000000000000e+00  3.0355113357579105e-01 -2.3183100195242487e-02 0.0000000000000000e+00  5.9916110765366593e-01 -9.7730517353102217e-02 0.0000000000000000e+00  6.0949195230171373e-02 -1.5556046153797309e-02 0.0000000000000000e+00  2.7219803846673365e+00 -1.4497196226142905e-01 0.0000000000000000e+00  1.0212749890416648e+00 -1.2456104148425565e-01 0.0000000000000000e+00  1.2632381500454324e+00 -9.9179886921545168e-02 0.0000000000000000e+00  4.8696801046231214e-01 -4.1702205151610709e-02 0.0000000000000000e+00  5.5682516107416324e-01 -4.4467931717557529e-02 0.0000000000000000e+00  0.0000000000000000e+00 0.0000000000000000e+00 0.0000000000000000e+00  1.9284098680316808e+00 -1.4626046318505609e-01 0.0000000000000000e+00  1.1805996193944304e+00 -4.5962637373762709e-02 0.0000000000000000e+00  9.8255096610079573e-01 -1.1614241724372981e-01 0.0000000000000000e+00  1.3524980938575004e+00 -1.8172235255633348e-01 0.0000000000000000e+00  2.8190263106000342e+00 -1.6425744092830705e-01 0.0000000000000000e+00  0.0000000000000000e+00 0.0000000000000000e+00 0.0000000000000000e+00  1.4506604330963824e+00 -2.1438650503576840e-02 0.0000000000000000e+00  1.2505252478139133e+00 -3.5204604422215138e-02 0.0000000000000000e+00  6.8123813289634938e-01 1.4367625512300922e-01 0.0000000000000000e+00  1.8296084085692649e-01 6.9143356142151557e-02 0.0000000000000000e+00  3.0182232122966961e+00 -2.8158546807235912e-01 0.0000000000000000e+00  2.2939325624074907e+00 -1.0815560001829684e-01 0.0000000000000000e+00  9.1204259215241473e-02 3.5592084333176927e-02 0.0000000000000000e+00  -1.5099363079910850e-02 -9.4413079536458631e-03 0.0000000000000000e+00  3.2283834471561329e-01 -8.5041713313737957e-02 0.0000000000000000e+00  9.7764835544256989e-01 1.4635860249186311e-01 0.0000000000000000e+00  4.7114066789553205e-01 -6.3686265522738039e-02 0.0000000000000000e+00  4.4070766986151627e-01 4.0814089289117568e-02 0.0000000000000000e+00  9.1088149996370193e-01 -1.4368412503908798e-01 0.0000000000000000e+00  2.1263428594016847e+00 -2.7102163059782414e-01 0.0000000000000000e+00  2.4653890638342468e+00 -3.8110607880794106e-01 0.0000000000000000e+00  0.0000000000000000e+00 0.0000000000000000e+00 0.0000000000000000e+00  6.7010292377471559e-01 -1.2231308114702215e-01 0.0000000000000000e+00  1.0078968128751593e+00 -1.6525662068069022e-01 0.0000000000000000e+00  2.8394663717142898e+00 -1.2808614475153079e-01 0.0000000000000000e+00  3.2899380890036101e-01 -2.0096132869139170e-02 0.0000000000000000e+00  -1.5202860478426949e-02 1.2625866233514684e-02 0.0000000000000000e+00  1.9531097005684772e+00 2.3214686211747523e-01 0.0000000000000000e+00  2.5077834983700211e+00 2.8603922963282058e-01 0.0000000000000000e+00  2.7566168139655645e+00 2.6010425476508203e-01 0.0000000000000000e+00  5.3798177914893430e-01 1.2699573508851558e-01 0.0000000000000000e+00  2.3736126402114035e+00 -7.8563031794271029e-02 0.0000000000000000e+00  </DataArray> 
</PointData> 
</Piece>
</UnstructuredGrid>
</VTKFile>