<?xml version="1.0"?>
<VTKFile type="UnstructuredGrid"  version="0.1"  >
<UnstructuredGrid>
<Piece  NumberOfPoints="102" NumberOfCells="171">
<Points>
<DataArray  type="Float64"  NumberOfComponents="3"  format="ascii">0.476773013087985 0.1999999999998713 0  0.4693047108508938 0.1970915826863783 0  0.4693047108503577 0.2040749161535231 0  0.4917096175621762 0.1999999999998808 0  0.4842413153250809 0.1970915826863873 0  0.4842413153245942 0.2040749161535287 0  0.5066462220363641 0.199999999999908 0  0.4991779197992749 0.1970915826863902 0  0.4991779197988497 0.2040749161535382 0  0.5215828265105155 0.1999999999999228 0  0.5141145242734466 0.1970915826863843 0  0.5141145242731028 0.2040749161535395 0  0.5365194309847112 0.1999999999999436 0  0.5290511287476175 0.1970915826863981 0  0.5290511287473298 0.2040749161535501 0  0.5327852798661811 0.19 0  0.5253169776290537 0.19 0  0.5178486753919799 0.19 0  0.5103803731549078 0.19 0  0.4879754664436223 0.19 0  0.4805071642065402 0.19 0  0.502912070917822 0.19 0  0.4954437686807294 0.19 0  0.4767730130872753 0.2056971942287455 0  0.4917096175615203 0.2056971942287492 0  0.5066462220358396 0.2056971942287649 0  0.5215828265100828 0.2056971942287677 0  0.5365194309843644 0.2056971942287865 0  0.5439623148931173 0.2040856076781014 0  0.5365194309847112 0.1943028057711659 0  0.5215828265105155 0.1943028057711514 0  0.4767730130879849 0.1943028057711153 0  0.4917096175621761 0.1943028057711214 0  0.5066462220363641 0.1943028057711422 0  0.480507164205851 0.21 0  0.4879754664429498 0.21 0  0.5103803731544119 0.21 0  0.5178486753915261 0.21 0  0.5402535821029386 0.21 0  0.54772188434007 0.21 0  0.4954437686800938 0.21 0  0.502912070917267 0.21 0  0.5253169776286404 0.21 0  0.5327852798657868 0.21 0  0.4730388619686996 0.21 0  0.4991779197992711 0.167693385507626 0  0.4900906149793102 0.1565876018036352 0  0.5082652246192162 0.1565876018036352 0  0.499237761463083 0.2192785032300353 0  0.4993542269391089 0.2308107468212473 0  0.5064903940750056 0.2246838314870058 0  0.5123638022628456 0.2310955071885417 0  0.536567636007916 0.2275987754591341 0  0.5347760817351684 0.2414500964404198 0  0.5283542774025207 0.2302880001042248 0  0.5455709551586724 0.2324144452751203 0  0.546982877175164 0.2233942294772845 0  0.5365194309843644 0.2180863504285254 0  0.5444469726554123 0.2157339702670886 0  0.5588244563271773 0.225349035787779 0  0.5519051872593019 0.2166420053265535 0  0.5216178319364539 0.1813492122870838 0  0.5265047000024197 0.2223941974774756 0  0.5286910337265995 0.2154702409242758 0  0.5150278681324471 0.2228450308306156 0  0.5214285426002536 0.2161011329323836 0  0.4767730130872752 0.2184019876485795 0  0.5209814004512184 0.2362962593649592 0  0.5084573036363184 0.2395108277223441 0  0.553378981997341 0.2322691570724318 0  0.5504647692515866 0.2417078359721865 0  0.4910031975930484 0.2171006717137592 0  0.5075668509025225 0.2171084086245455 0  0.5143590539697885 0.2155988592715468 0  0.4917096175621761 0.1826726487251064 0  0.5066462220363641 0.1826726487251085 0  0.5208355992062484 0.2285465546466679 0  0.4767380076620556 0.1813492122870721 0  0.4842366479349569 0.1837683957184343 0  0.5141191916635692 0.1837683957184422 0  0.4867628426197099 0.1672556638427207 0  0.5290511287476175 0.1834818376483974 0  0.5115929969788211 0.1672556638427288 0  0.4841984187204001 0.2159109988582109 0  0.5294745265341012 0.1761054820336709 0  0.5366299525895074 0.1825690825227473 0  0.4842413153250809 0.1755365127551258 0  0.4923756029794709 0.2245693836696246 0  0.4869999746943883 0.2308048359320609 0  0.5141145242734466 0.1755365127551412 0  0.4846260107628763 0.2228898464509046 0  0.4767730130879849 0.1622083790703084 0  0.5215828265105156 0.1622083790703317 0  0.4991779197992725 0.1783172034453956 0  0.4923389098589435 0.1741809711526818 0  0.4767269250530047 0.1713973971258736 0  0.506016929739597 0.1741809711526895 0  0.5349004284018322 0.1565876018036672 0  0.5316967135713353 0.1673421178078786 0  0.5216289307659581 0.1713997813123399 0  0.4991779197992735 0.1849089375109228 0  0.5631143150331265 0.2366473934541688 0  </DataArray>
</Points>
<Cells>
<DataArray  type="UInt32"  Name="connectivity"  format="ascii">0 1 2  3 4 5  6 7 8  9 10 11  12 13 14  9 13 14  6 10 11  3 7 8  0 4 5  15 16 13  17 18 10  19 20 4  21 22 7  0 2 23  3 5 24  6 8 25  9 11 26  12 14 27  12 28 27  9 14 26  6 11 25  3 8 24  0 5 23  15 13 29  16 13 30  9 13 30  12 13 29  0 4 31  20 4 31  0 1 31  19 4 32  18 10 33  21 7 33  22 7 32  17 10 30  6 7 33  6 10 33  3 4 32  3 7 32  9 10 30  34 35 5  36 37 11  38 39 28  40 41 8  42 43 14  34 5 23  44 2 23  35 5 24  40 8 24  36 11 25  41 8 25  42 14 26  43 14 27  38 28 27  37 11 26  44 34 23  35 40 24  41 36 25  43 38 27  37 42 26  22 19 32  18 21 33  16 17 30  45 46 47  40 41 48  49 50 51  52 53 54  52 53 55  56 57 58  59 56 60  52 56 57  16 17 61  52 62 57  62 57 63  64 62 65  44 34 66  67 53 54  43 38 57  49 68 51  59 56 69  70 53 55  40 48 71  41 48 72  52 56 55  64 73 65  22 19 74  18 21 75  64 62 76  20 77 78  17 61 79  45 46 80  16 61 81  56 55 69  45 47 82  34 66 83  35 40 71  41 36 72  84 85 81  52 62 54  86 74 78  49 87 88  67 68 51  89 75 79  38 57 58  43 57 63  90 71 83  64 72 73  91 46 80  19 20 78  17 18 79  15 16 81  34 35 83  92 47 82  36 37 73  45 93 94  86 77 95  45 93 96  92 97 98  45 94 80  19 74 78  84 61 99  18 75 79  45 96 82  89 61 99  90 71 87  37 42 65  15 85 81  64 72 50  86 74 94  89 75 96  38 39 58  35 71 83  36 72 73  22 74 100  21 75 100  42 43 63  84 61 81  86 80 95  84 98 99  86 77 78  89 61 79  89 82 99  49 48 87  49 48 50  90 66 83  37 73 65  48 71 87  48 72 50  39 60 58  42 65 63  92 98 99  91 80 95  59 101 69  21 22 100  92 82 99  64 50 51  86 94 80  93 74 94  93 75 96  89 96 82  70 101 69  93 74 100  93 75 100  56 60 58  62 65 63  90 87 88  62 54 76  64 76 51  70 55 69  67 76 51  67 54 76  </DataArray>
<DataArray  type="UInt32"  Name="offsets"  format="ascii">3 6 9 12 15 18 21 24 27 30 33 36 39 42 45 48 51 54 57 60 63 66 69 72 75 78 81 84 87 90 93 96 99 102 105 108 111 114 117 120 123 126 129 132 135 138 141 144 147 150 153 156 159 162 165 168 171 174 177 180 183 186 189 192 195 198 201 204 207 210 213 216 219 222 225 228 231 234 237 240 243 246 249 252 255 258 261 264 267 270 273 276 279 282 285 288 291 294 297 300 303 306 309 312 315 318 321 324 327 330 333 336 339 342 345 348 351 354 357 360 363 366 369 372 375 378 381 384 387 390 393 396 399 402 405 408 411 414 417 420 423 426 429 432 435 438 441 444 447 450 453 456 459 462 465 468 471 474 477 480 483 486 489 492 495 498 501 504 507 510 513 </DataArray>
<DataArray  type="UInt8"  Name="types"  format="ascii">5 5 5 5 5 5 5 5 5 5 5 5 5 5 5 5 5 5 5 5 5 5 5 5 5 5 5 5 5 5 5 5 5 5 5 5 5 5 5 5 5 5 5 5 5 5 5 5 5 5 5 5 5 5 5 5 5 5 5 5 5 5 5 5 5 5 5 5 5 5 5 5 5 5 5 5 5 5 5 5 5 5 5 5 5 5 5 5 5 5 5 5 5 5 5 5 5 5 5 5 5 5 5 5 5 5 5 5 5 5 5 5 5 5 5 5 5 5 5 5 5 5 5 5 5 5 5 5 5 5 5 5 5 5 5 5 5 5 5 5 5 5 5 5 5 5 5 5 5 5 5 5 5 5 5 5 5 5 5 5 5 5 5 5 5 5 5 5 5 5 5 </DataArray>
</Cells>
<PointData  Vectors="f_43-0"> 
<DataArray  type="Float64"  Name="f_43-0"  NumberOfComponents="3" format="ascii">-1.5292978408590770e-06 -2.0786870901486450e-05 0.0000000000000000e+00  -9.5086978598535967e-06 -2.4981937465314582e-06 0.0000000000000000e+00  6.5670482784267970e-06 -4.0185400691333553e-06 0.0000000000000000e+00  8.8976618343146257e-07 -5.7404735476463038e-05 0.0000000000000000e+00  -7.3281232387500561e-06 -3.8346630611243679e-05 0.0000000000000000e+00  9.6119179085904976e-06 -3.9779105896083514e-05 0.0000000000000000e+00  3.0390040554386335e-06 -9.5207447984828065e-05 0.0000000000000000e+00  -5.2870883447112415e-06 -7.5652953844039818e-05 0.0000000000000000e+00  1.2251614252720255e-05 -7.6981735314826498e-05 0.0000000000000000e+00  4.8841327579078310e-06 -1.3376602632497140e-04 0.0000000000000000e+00  -3.4487472224963428e-06 -1.1392092167691149e-04 0.0000000000000000e+00  1.4483728410295453e-05 -1.1513376458951773e-04 0.0000000000000000e+00  6.3954671877605726e-06 -1.7277164751071619e-04 0.0000000000000000e+00  -1.8675922743943515e-06 -1.5278284916065647e-04 0.0000000000000000e+00  1.6308682522953713e-05 -1.5386890285867271e-04 0.0000000000000000e+00  -1.9885227276763172e-05 -1.6154138028557513e-04 0.0000000000000000e+00  -2.0518271499930288e-05 -1.4195941917350007e-04 0.0000000000000000e+00  -2.1198795848851955e-05 -1.2247925739551527e-04 0.0000000000000000e+00  -2.1911583347703249e-05 -1.0313551055035671e-04 0.0000000000000000e+00  -2.4123955878548273e-05 -4.6336758555004398e-05 0.0000000000000000e+00  -2.4834344380276906e-05 -2.7998491271095461e-05 0.0000000000000000e+00  -2.2647306248238376e-05 -8.3963908464306219e-05 0.0000000000000000e+00  -2.3388315890375114e-05 -6.5014481383210147e-05 0.0000000000000000e+00  1.2005639752412642e-05 -2.2065192409095688e-05 0.0000000000000000e+00  1.5017674825599447e-05 -5.8582408294705543e-05 0.0000000000000000e+00  1.7567721041890596e-05 -9.6278357803755661e-05 0.0000000000000000e+00  1.9669077145642597e-05 -1.3472539955267264e-04 0.0000000000000000e+00  2.1334104854361819e-05 -1.7361470510277727e-04 0.0000000000000000e+00  1.7751935837800411e-05 -1.9286639197884772e-04 0.0000000000000000e+00  -8.4386412239484365e-06 -1.7195853662725006e-04 0.0000000000000000e+00  -9.8022355785406705e-06 -1.3285794701496314e-04 0.0000000000000000e+00  -1.4994071459266981e-05 -1.9688692140852700e-05 0.0000000000000000e+00  -1.3156503379585769e-05 -5.6352084774508233e-05 0.0000000000000000e+00  -1.1398684178214327e-05 -9.4219006629131028e-05 0.0000000000000000e+00  2.3255312578432000e-05 -3.2114184673957527e-05 0.0000000000000000e+00  2.4982342908932944e-05 -5.0324908505656930e-05 0.0000000000000000e+00  2.9257450229371673e-05 -1.0667181802632278e-04 0.0000000000000000e+00  3.0401853197991277e-05 -1.2584750230980503e-04 0.0000000000000000e+00  3.3069428127380178e-05 -1.8401196912497941e-04 0.0000000000000000e+00  3.3718245725065964e-05 -2.0352515730289491e-04 0.0000000000000000e+00  2.6553707560942171e-05 -6.8860946870673368e-05 0.0000000000000000e+00  2.7976994781529616e-05 -8.7661067606924968e-05 0.0000000000000000e+00  3.1415151285540163e-05 -1.4514986089439878e-04 0.0000000000000000e+00  3.2303078297520240e-05 -1.6454659099383843e-04 0.0000000000000000e+00  2.1367397041185127e-05 -1.4297867096617256e-05 0.0000000000000000e+00  7.8036075763328061e-01 9.7380357723245124e-03 0.0000000000000000e+00  9.1497253136653001e-01 2.2694610767170196e-02 0.0000000000000000e+00  9.3326359616441834e-01 1.8174144263226007e-02 0.0000000000000000e+00  4.3599695792463611e-01 -2.3430957566393019e-03 0.0000000000000000e+00  7.5252218824515760e-01 -9.8496912945196559e-03 0.0000000000000000e+00  6.1414823123294870e-01 -5.0426065065369789e-03 0.0000000000000000e+00  7.6837515260336353e-01 -9.1953428609567855e-03 0.0000000000000000e+00  7.0856554609219213e-01 -8.0130390586447397e-03 0.0000000000000000e+00  9.3611917799757094e-01 -1.8100557667203965e-02 0.0000000000000000e+00  7.6349996995863023e-01 -9.0312064667143425e-03 0.0000000000000000e+00  8.1700207293421834e-01 -1.3090873594860820e-02 0.0000000000000000e+00  5.9958449454278839e-01 -6.5967077581983290e-03 0.0000000000000000e+00  4.0434986386132071e-01 -2.4163392673530603e-03 0.0000000000000000e+00  3.0589677603906928e-01 -1.7081467996435055e-03 0.0000000000000000e+00  6.6665023402680090e-01 -1.0994013333843583e-02 0.0000000000000000e+00  3.5080512019952947e-01 -2.5665109269598094e-03 0.0000000000000000e+00  4.1921654887121634e-01 1.5773282051855517e-03 0.0000000000000000e+00  5.5601952590283987e-01 -4.0193460604374251e-03 0.0000000000000000e+00  2.8815975398864996e-01 -1.0939864232588521e-03 0.0000000000000000e+00  5.6452152828117375e-01 -3.9239162317272107e-03 0.0000000000000000e+00  3.1453208968717306e-01 -1.1933296728109599e-03 0.0000000000000000e+00  3.9244884973652716e-01 -2.5280596435359255e-03 0.0000000000000000e+00  8.6213007650963258e-01 -1.3182374349664492e-02 0.0000000000000000e+00  8.9251192000803037e-01 -1.6729910764154650e-02 0.0000000000000000e+00  8.2061654261963002e-01 -1.5187605179396090e-02 0.0000000000000000e+00  9.5081522355520620e-01 -2.1673286284248455e-02 0.0000000000000000e+00  3.4770371627520369e-01 -1.5075761902830003e-03 0.0000000000000000e+00  3.5368158109280978e-01 -1.4364111487891143e-03 0.0000000000000000e+00  2.9008026612185006e-01 -1.0110059955198702e-03 0.0000000000000000e+00  3.5664122160093770e-01 1.2617796639221477e-03 0.0000000000000000e+00  3.6143350524388862e-01 1.0748570302271014e-03 0.0000000000000000e+00  7.2059847700157520e-01 -7.4367414625376438e-03 0.0000000000000000e+00  4.0177311616922118e-01 2.3054821393274708e-03 0.0000000000000000e+00  3.0865328923125090e-01 1.0765648657079228e-03 0.0000000000000000e+00  3.1708399247479974e-01 7.2933816863480225e-04 0.0000000000000000e+00  7.7664793030923984e-01 1.2186689357663242e-02 0.0000000000000000e+00  3.3382283021515380e-01 9.9760354761454389e-04 0.0000000000000000e+00  7.9768362633646905e-01 9.0097613420700787e-03 0.0000000000000000e+00  2.9520290849644992e-01 -1.2096662283013430e-03 0.0000000000000000e+00  6.0208146716442767e-01 4.0748808350891969e-03 0.0000000000000000e+00  3.7545656072014127e-01 1.4814051996696821e-03 0.0000000000000000e+00  5.9334934689630947e-01 5.4191216613199006e-03 0.0000000000000000e+00  6.0207757143174778e-01 -5.5042741694904468e-03 0.0000000000000000e+00  7.4128839912289080e-01 -1.1489601067850108e-02 0.0000000000000000e+00  6.1094257416040310e-01 3.8720981485304653e-03 0.0000000000000000e+00  5.4853358862088508e-01 -4.9524238712604059e-03 0.0000000000000000e+00  8.3900012791048972e-01 2.0476724667884669e-02 0.0000000000000000e+00  8.8256434720276034e-01 1.2440325370435932e-02 0.0000000000000000e+00  5.1885527912828799e-01 2.8819024389978918e-03 0.0000000000000000e+00  6.3506440469820302e-01 5.5478362279542453e-03 0.0000000000000000e+00  6.8735290690077100e-01 9.9570825344776383e-03 0.0000000000000000e+00  6.4361873554323568e-01 4.8070790996301337e-03 0.0000000000000000e+00  9.5499919408179146e-01 1.7099635098103923e-02 0.0000000000000000e+00  8.0998002143338466e-01 9.3309125083788792e-03 0.0000000000000000e+00  7.2079451425540053e-01 6.2467757611005615e-03 0.0000000000000000e+00  2.6249293777760918e-01 5.3681900412030535e-04 0.0000000000000000e+00  8.9984168715546298e-01 -2.3437606093237025e-02 0.0000000000000000e+00  </DataArray> 
</PointData> 
</Piece>
</UnstructuredGrid>
</VTKFile>