<?xml version="1.0"?>
<VTKFile type="UnstructuredGrid"  version="0.1"  >
<UnstructuredGrid>
<Piece  NumberOfPoints="102" NumberOfCells="171">
<Points>
<DataArray  type="Float64"  NumberOfComponents="3"  format="ascii">0.476773013087985 0.1999999999998713 0  0.4693047108508938 0.1970915826863783 0  0.4693047108503577 0.2040749161535231 0  0.4917096175621762 0.1999999999998808 0  0.4842413153250809 0.1970915826863873 0  0.4842413153245942 0.2040749161535287 0  0.5066462220363641 0.199999999999908 0  0.4991779197992749 0.1970915826863902 0  0.4991779197988497 0.2040749161535382 0  0.5215828265105155 0.1999999999999228 0  0.5141145242734466 0.1970915826863843 0  0.5141145242731028 0.2040749161535395 0  0.5365194309847112 0.1999999999999436 0  0.5290511287476175 0.1970915826863981 0  0.5290511287473298 0.2040749161535501 0  0.5327852798661811 0.19 0  0.5253169776290537 0.19 0  0.5178486753919799 0.19 0  0.5103803731549078 0.19 0  0.4879754664436223 0.19 0  0.4805071642065402 0.19 0  0.502912070917822 0.19 0  0.4954437686807294 0.19 0  0.4767730130872753 0.2056971942287455 0  0.4917096175615203 0.2056971942287492 0  0.5066462220358396 0.2056971942287649 0  0.5215828265100828 0.2056971942287677 0  0.5365194309843644 0.2056971942287865 0  0.5439623148931173 0.2040856076781014 0  0.5365194309847112 0.1943028057711659 0  0.5215828265105155 0.1943028057711514 0  0.4767730130879849 0.1943028057711153 0  0.4917096175621761 0.1943028057711214 0  0.5066462220363641 0.1943028057711422 0  0.480507164205851 0.21 0  0.4879754664429498 0.21 0  0.5103803731544119 0.21 0  0.5178486753915261 0.21 0  0.5402535821029386 0.21 0  0.54772188434007 0.21 0  0.4954437686800938 0.21 0  0.502912070917267 0.21 0  0.5253169776286404 0.21 0  0.5327852798657868 0.21 0  0.4730388619686996 0.21 0  0.4991779197992711 0.167693385507626 0  0.4900906149793102 0.1565876018036352 0  0.5082652246192162 0.1565876018036352 0  0.499237761463083 0.2192785032300353 0  0.4993542269391089 0.2308107468212473 0  0.5064903940750056 0.2246838314870058 0  0.5123638022628456 0.2310955071885417 0  0.536567636007916 0.2275987754591341 0  0.5347760817351684 0.2414500964404198 0  0.5283542774025207 0.2302880001042248 0  0.5455709551586724 0.2324144452751203 0  0.546982877175164 0.2233942294772845 0  0.5365194309843644 0.2180863504285254 0  0.5444469726554123 0.2157339702670886 0  0.5588244563271773 0.225349035787779 0  0.5519051872593019 0.2166420053265535 0  0.5216178319364539 0.1813492122870838 0  0.5265047000024197 0.2223941974774756 0  0.5286910337265995 0.2154702409242758 0  0.5150278681324471 0.2228450308306156 0  0.5214285426002536 0.2161011329323836 0  0.4767730130872752 0.2184019876485795 0  0.5209814004512184 0.2362962593649592 0  0.5084573036363184 0.2395108277223441 0  0.553378981997341 0.2322691570724318 0  0.5504647692515866 0.2417078359721865 0  0.4910031975930484 0.2171006717137592 0  0.5075668509025225 0.2171084086245455 0  0.5143590539697885 0.2155988592715468 0  0.4917096175621761 0.1826726487251064 0  0.5066462220363641 0.1826726487251085 0  0.5208355992062484 0.2285465546466679 0  0.4767380076620556 0.1813492122870721 0  0.4842366479349569 0.1837683957184343 0  0.5141191916635692 0.1837683957184422 0  0.4867628426197099 0.1672556638427207 0  0.5290511287476175 0.1834818376483974 0  0.5115929969788211 0.1672556638427288 0  0.4841984187204001 0.2159109988582109 0  0.5294745265341012 0.1761054820336709 0  0.5366299525895074 0.1825690825227473 0  0.4842413153250809 0.1755365127551258 0  0.4923756029794709 0.2245693836696246 0  0.4869999746943883 0.2308048359320609 0  0.5141145242734466 0.1755365127551412 0  0.4846260107628763 0.2228898464509046 0  0.4767730130879849 0.1622083790703084 0  0.5215828265105156 0.1622083790703317 0  0.4991779197992725 0.1783172034453956 0  0.4923389098589435 0.1741809711526818 0  0.4767269250530047 0.1713973971258736 0  0.506016929739597 0.1741809711526895 0  0.5349004284018322 0.1565876018036672 0  0.5316967135713353 0.1673421178078786 0  0.5216289307659581 0.1713997813123399 0  0.4991779197992735 0.1849089375109228 0  0.5631143150331265 0.2366473934541688 0  </DataArray>
</Points>
<Cells>
<DataArray  type="UInt32"  Name="connectivity"  format="ascii">0 1 2  3 4 5  6 7 8  9 10 11  12 13 14  9 13 14  6 10 11  3 7 8  0 4 5  15 16 13  17 18 10  19 20 4  21 22 7  0 2 23  3 5 24  6 8 25  9 11 26  12 14 27  12 28 27  9 14 26  6 11 25  3 8 24  0 5 23  15 13 29  16 13 30  9 13 30  12 13 29  0 4 31  20 4 31  0 1 31  19 4 32  18 10 33  21 7 33  22 7 32  17 10 30  6 7 33  6 10 33  3 4 32  3 7 32  9 10 30  34 35 5  36 37 11  38 39 28  40 41 8  42 43 14  34 5 23  44 2 23  35 5 24  40 8 24  36 11 25  41 8 25  42 14 26  43 14 27  38 28 27  37 11 26  44 34 23  35 40 24  41 36 25  43 38 27  37 42 26  22 19 32  18 21 33  16 17 30  45 46 47  40 41 48  49 50 51  52 53 54  52 53 55  56 57 58  59 56 60  52 56 57  16 17 61  52 62 57  62 57 63  64 62 65  44 34 66  67 53 54  43 38 57  49 68 51  59 56 69  70 53 55  40 48 71  41 48 72  52 56 55  64 73 65  22 19 74  18 21 75  64 62 76  20 77 78  17 61 79  45 46 80  16 61 81  56 55 69  45 47 82  34 66 83  35 40 71  41 36 72  84 85 81  52 62 54  86 74 78  49 87 88  67 68 51  89 75 79  38 57 58  43 57 63  90 71 83  64 72 73  91 46 80  19 20 78  17 18 79  15 16 81  34 35 83  92 47 82  36 37 73  45 93 94  86 77 95  45 93 96  92 97 98  45 94 80  19 74 78  84 61 99  18 75 79  45 96 82  89 61 99  90 71 87  37 42 65  15 85 81  64 72 50  86 74 94  89 75 96  38 39 58  35 71 83  36 72 73  22 74 100  21 75 100  42 43 63  84 61 81  86 80 95  84 98 99  86 77 78  89 61 79  89 82 99  49 48 87  49 48 50  90 66 83  37 73 65  48 71 87  48 72 50  39 60 58  42 65 63  92 98 99  91 80 95  59 101 69  21 22 100  92 82 99  64 50 51  86 94 80  93 74 94  93 75 96  89 96 82  70 101 69  93 74 100  93 75 100  56 60 58  62 65 63  90 87 88  62 54 76  64 76 51  70 55 69  67 76 51  67 54 76  </DataArray>
<DataArray  type="UInt32"  Name="offsets"  format="ascii">3 6 9 12 15 18 21 24 27 30 33 36 39 42 45 48 51 54 57 60 63 66 69 72 75 78 81 84 87 90 93 96 99 102 105 108 111 114 117 120 123 126 129 132 135 138 141 144 147 150 153 156 159 162 165 168 171 174 177 180 183 186 189 192 195 198 201 204 207 210 213 216 219 222 225 228 231 234 237 240 243 246 249 252 255 258 261 264 267 270 273 276 279 282 285 288 291 294 297 300 303 306 309 312 315 318 321 324 327 330 333 336 339 342 345 348 351 354 357 360 363 366 369 372 375 378 381 384 387 390 393 396 399 402 405 408 411 414 417 420 423 426 429 432 435 438 441 444 447 450 453 456 459 462 465 468 471 474 477 480 483 486 489 492 495 498 501 504 507 510 513 </DataArray>
<DataArray  type="UInt8"  Name="types"  format="ascii">5 5 5 5 5 5 5 5 5 5 5 5 5 5 5 5 5 5 5 5 5 5 5 5 5 5 5 5 5 5 5 5 5 5 5 5 5 5 5 5 5 5 5 5 5 5 5 5 5 5 5 5 5 5 5 5 5 5 5 5 5 5 5 5 5 5 5 5 5 5 5 5 5 5 5 5 5 5 5 5 5 5 5 5 5 5 5 5 5 5 5 5 5 5 5 5 5 5 5 5 5 5 5 5 5 5 5 5 5 5 5 5 5 5 5 5 5 5 5 5 5 5 5 5 5 5 5 5 5 5 5 5 5 5 5 5 5 5 5 5 5 5 5 5 5 5 5 5 5 5 5 5 5 5 5 5 5 5 5 5 5 5 5 5 5 5 5 5 5 5 5 </DataArray>
</Cells>
<PointData  Vectors="f_43-0"> 
<DataArray  type="Float64"  Name="f_43-0"  NumberOfComponents="3" format="ascii">-9.6780398913975479e-05 1.6392259925535624e-03 0.0000000000000000e+00  -8.5170896674633930e-05 1.6092571238443228e-03 0.0000000000000000e+00  -1.1491797815894662e-04 1.6097478683191235e-03 0.0000000000000000e+00  -9.4789838172644209e-05 1.6904445671664294e-03 0.0000000000000000e+00  -8.5562587249433575e-05 1.6657987065509118e-03 0.0000000000000000e+00  -1.1027478361194880e-04 1.6659912967337521e-03 0.0000000000000000e+00  -9.2403715078467931e-05 1.7331658882062913e-03 0.0000000000000000e+00  -8.4999582586296117e-05 1.7125774547796669e-03 0.0000000000000000e+00  -1.0572082859617335e-04 1.7125950139544070e-03 0.0000000000000000e+00  -8.9841558083562120e-05 1.7697451292031253e-03 0.0000000000000000e+00  -8.3726403007302569e-05 1.7520143009327558e-03 0.0000000000000000e+00  -1.0149237091130087e-04 1.7519582037902107e-03 0.0000000000000000e+00  -8.7278947495550010e-05 1.8022712313218593e-03 0.0000000000000000e+00  -8.1982888570284086e-05 1.7863588746007729e-03 0.0000000000000000e+00  -9.7727266531322642e-05 1.7863075940234953e-03 0.0000000000000000e+00  -6.6027696719728836e-05 1.7939719202851707e-03 0.0000000000000000e+00  -6.6201784198163734e-05 1.7776206381470382e-03 0.0000000000000000e+00  -6.6100045037818114e-05 1.7603505628066719e-03 0.0000000000000000e+00  -6.5658937829431301e-05 1.7419002701235418e-03 0.0000000000000000e+00  -6.1887345198663286e-05 1.6768280166517809e-03 0.0000000000000000e+00  -5.9677197602676814e-05 1.6508981684336345e-03 0.0000000000000000e+00  -6.4842598298162627e-05 1.7220285490998431e-03 0.0000000000000000e+00  -6.3595424565658377e-05 1.7004284547965057e-03 0.0000000000000000e+00  -1.1889177756898832e-04 1.6390750894739112e-03 0.0000000000000000e+00  -1.1319790188153189e-04 1.6901883462292144e-03 0.0000000000000000e+00  -1.0797281732763870e-04 1.7328957937901507e-03 0.0000000000000000e+00  -1.0338781735434545e-04 1.7695261555469369e-03 0.0000000000000000e+00  -9.9505039326078896e-05 1.8021452390526494e-03 0.0000000000000000e+00  -9.4511070006754344e-05 1.8174795796912454e-03 0.0000000000000000e+00  -7.5007742855502977e-05 1.8021345911038227e-03 0.0000000000000000e+00  -7.6273890124004364e-05 1.7695424631394654e-03 0.0000000000000000e+00  -7.4750213809177964e-05 1.6383342968979899e-03 0.0000000000000000e+00  -7.6423992167749661e-05 1.6898728952118055e-03 0.0000000000000000e+00  -7.6842274212515400e-05 1.7328216014015532e-03 0.0000000000000000e+00  -1.3321637861341917e-04 1.6519677795510967e-03 0.0000000000000000e+00  -1.2895080151165188e-04 1.6775196497220339e-03 0.0000000000000000e+00  -1.1789236064244973e-04 1.7419599435768709e-03 0.0000000000000000e+00  -1.1484097133457337e-04 1.7603272212819790e-03 0.0000000000000000e+00  -1.0754374410141186e-04 1.8096504915488564e-03 0.0000000000000000e+00  -1.0567166428922718e-04 1.8248555441668598e-03 0.0000000000000000e+00  -1.2495736417433170e-04 1.7008386682447086e-03 0.0000000000000000e+00  -1.2126553342654349e-04 1.7222227492225859e-03 0.0000000000000000e+00  -1.1210845736343909e-04 1.7775795365801439e-03 0.0000000000000000e+00  -1.0968107249955045e-04 1.7939517387314304e-03 0.0000000000000000e+00  -1.3771992907464099e-04 1.6238870109311033e-03 0.0000000000000000e+00  9.5129209600721720e-01 5.6607921263345164e-02 0.0000000000000000e+00  1.2310531901881947e+00 9.9535701374300622e-02 0.0000000000000000e+00  1.2740350544958334e+00 8.0478166055305125e-02 0.0000000000000000e+00  4.9410243464894998e-01 -1.3072812684973328e-02 0.0000000000000000e+00  8.9594434779619936e-01 -5.3536326165291220e-02 0.0000000000000000e+00  7.2624273682796037e-01 -2.7960274029216112e-02 0.0000000000000000e+00  9.5030712808569451e-01 -4.6641596454148185e-02 0.0000000000000000e+00  9.1326802447795419e-01 -2.7305914375031475e-02 0.0000000000000000e+00  1.2788316187556943e+00 -6.2788443759537876e-02 0.0000000000000000e+00  9.7501010269357369e-01 -3.6771735090729896e-02 0.0000000000000000e+00  1.0803496750554475e+00 -3.7966059187113009e-02 0.0000000000000000e+00  7.8403171865480747e-01 -1.6189674470013293e-02 0.0000000000000000e+00  5.1803430924390281e-01 -5.9474223609868706e-03 0.0000000000000000e+00  3.9797283172684900e-01 -2.2887113107897088e-03 0.0000000000000000e+00  8.8682241203836554e-01 -2.1318548952364239e-02 0.0000000000000000e+00  4.6192416887700499e-01 -3.5483649854182358e-03 0.0000000000000000e+00  5.2173148687255455e-01 1.0247699175566536e-02 0.0000000000000000e+00  6.9638754023091753e-01 -1.5961017711182732e-02 0.0000000000000000e+00  3.6214494007125292e-01 -2.2038120387714690e-03 0.0000000000000000e+00  6.8437768900317797e-01 -1.9623181080723681e-02 0.0000000000000000e+00  3.8722663684892050e-01 -3.4177993515355112e-03 0.0000000000000000e+00  3.8704929002808941e-01 -1.4950194314757977e-02 0.0000000000000000e+00  1.1198336360514110e+00 -5.7598757829435042e-02 0.0000000000000000e+00  1.1686395918283428e+00 -7.5671981847981698e-02 0.0000000000000000e+00  1.0955234669901668e+00 -3.7164455990506551e-02 0.0000000000000000e+00  1.3159441979680784e+00 -5.7921117634760939e-02 0.0000000000000000e+00  3.7533772895178485e-01 -8.5423905305152467e-03 0.0000000000000000e+00  4.1447094014987285e-01 -6.4553651587072481e-03 0.0000000000000000e+00  3.4859548492743042e-01 -3.1538943961392455e-03 0.0000000000000000e+00  3.9612135173052315e-01 1.1232397409571227e-02 0.0000000000000000e+00  4.2869190352313413e-01 9.3566259292557786e-03 0.0000000000000000e+00  9.0005125035705369e-01 -3.4677006903224269e-02 0.0000000000000000e+00  4.1016973724030187e-01 1.7627398425071533e-02 0.0000000000000000e+00  3.2771520592705228e-01 9.7149760018123994e-03 0.0000000000000000e+00  3.8561394459394388e-01 6.8459466247739022e-03 0.0000000000000000e+00  9.1905432775459084e-01 6.7719468614715991e-02 0.0000000000000000e+00  4.2276292932475629e-01 6.4582929218834221e-03 0.0000000000000000e+00  1.0036653517823590e+00 5.0094092538030648e-02 0.0000000000000000e+00  3.0383374340833097e-01 -6.4143846722746860e-03 0.0000000000000000e+00  7.6573422452230844e-01 1.9928127627465667e-02 0.0000000000000000e+00  4.8305386978791898e-01 7.3349687695419353e-03 0.0000000000000000e+00  6.5130214064788594e-01 3.6661164266220049e-02 0.0000000000000000e+00  6.7225533703025775e-01 -3.3042112112162444e-02 0.0000000000000000e+00  8.4699439515951491e-01 -6.2055639425575466e-02 0.0000000000000000e+00  7.4913994794586247e-01 2.4905769088699285e-02 0.0000000000000000e+00  5.8367065393640472e-01 -2.9816199398377465e-02 0.0000000000000000e+00  1.0287736716086153e+00 9.6601749403003756e-02 0.0000000000000000e+00  1.1649229018038576e+00 5.7469879150288956e-02 0.0000000000000000e+00  6.0179087601216330e-01 2.1558831793568520e-02 0.0000000000000000e+00  7.2740356181859478e-01 3.7650527486230170e-02 0.0000000000000000e+00  7.5251575189027331e-01 5.8297702951661666e-02 0.0000000000000000e+00  7.7325938011593787e-01 3.1753496707474675e-02 0.0000000000000000e+00  1.3239672102998161e+00 6.1388265288134083e-02 0.0000000000000000e+00  1.0551569868187296e+00 4.0208158869300542e-02 0.0000000000000000e+00  9.0949049147385352e-01 3.3593505147587251e-02 0.0000000000000000e+00  3.0106733608762898e-01 6.1149925508901734e-03 0.0000000000000000e+00  1.2279818855259002e+00 -4.8146255209920170e-02 0.0000000000000000e+00  </DataArray> 
</PointData> 
</Piece>
</UnstructuredGrid>
</VTKFile>