<?xml version="1.0"?>
<VTKFile type="UnstructuredGrid"  version="0.1"  >
<UnstructuredGrid>
<Piece  NumberOfPoints="105" NumberOfCells="169">
<Points>
<DataArray  type="Float64"  NumberOfComponents="3"  format="ascii">0.3411792619035872 0.1007807988883264 0  0.3223547013037051 0.0811661342953541 0  0.3444094697767079 0.06991525711561337 0  0.2731077660562961 0.05508844879223635 0  0.2987388406956894 0.03154986994134981 0  0.2542757755299287 0.02753888901404131 0  0.3578728954606922 0.1299960675997348 0  0.3428550702839791 0.1207298864326248 0  0.3606088315611094 0.1037277084934985 0  0.2767628315692916 0.1210799475693868 0  0.260361447596534 0.1229759280558447 0  0.2739511166480145 0.1012903426171407 0  0.3642910294882131 0.08514217524358583 0  0.3684404229859068 0.05879875930223131 0  0.3866266297147894 0.03466711669742863 0  0.3886771468199661 0.07134613381357163 0  0.2571393426600714 0.09909224058133874 0  0.3718691980658081 0.1185113859721947 0  0.4143465137990051 0.05322961011747924 0  0.3655464778159961 0.1466879707354811 0  0.383930166391577 0.149077512173999 0  0.3750556316230105 0.1339831864103567 0  0.2981367854000865 0.1637235218245288 0  0.3103932646056649 0.1564266048246118 0  0.2950877208405285 0.1519675848591752 0  0.2473666618189879 0.1284124620716267 0  0.2591911171199197 0.1383198970354824 0  0.2490293115886795 0.1431700167801526 0  0.2607333124992295 0.173299215235651 0  0.2517589812677475 0.167282708207138 0  0.2510789311637825 0.1750218956597876 0  0.2718919859823887 0.1383852123087317 0  0.2741016576309132 0 0  0.3196154281700737 0.10148243027238 0  0.29753375939705 0.1013617902187171 0  0.3134318661301231 0.1190195115870869 0  0.2957425685352801 0.1395139256920557 0  0.294176374911891 0.1223585976984507 0  0.3100661524214186 0.1349017352953573 0  0.2599422691915476 0.1624889056516055 0  0.2437828577465094 0.1110862473067074 0  0.2400332147834255 0.1700443375285386 0  0.2352133972704371 0.1645032867342007 0  0.2437579188981839 0.1628382198077666 0  0.350756438860385 0.03770412947703979 0  0.2788297821231576 0.08311242826819275 0  0.252515959816117 0.07648796931448625 0  0.30960746080092 0.166771572284543 0  0.3556974926295285 0 0  0.2836036752964591 0.1339631263286828 0  0.2798983539554935 0.1725715317274126 0  0.2887875715604008 0.1784526411902859 0  0.2885139350435456 0.1684952536990488 0  0.3000697101066698 0.06520450816453537 0  0.2693200344911409 0.1703624615729042 0  0.3871533862426518 0.1004535961197204 0  0.3238690756099825 0.05273873904001699 0  0.2469965252529372 0.1829317073451959 0  0.2439893735792749 0.1762316384219906 0  0.2755531838498857 0.1520654843226777 0  0.2695935332846553 0.1606647427601511 0  0.2781997444103622 0.1631408916221692 0  0.3881774741414789 0.1375237980955535 0  0.3038812691128678 0.0841994561932124 0  0.387533158164613 0.1229770158841918 0  0.3024350031838242 0.1697562882658549 0  0.4121197549442807 0.08306196356607598 0  0.2372267379181886 0.156514666897516 0  0.228090483983057 0.1360461642521307 0  0.2231096629876289 0.1473860403476538 0  0.2311198366185791 0.1437551092913072 0  0.3987229542472677 0 0  0.2862543528039888 0.1579205993776223 0  0.2537568794636046 0.1534616887828778 0  0.2638326913414331 0.1507903208689992 0  0.23872107061991 0.1472714280426708 0  0.2448734012151204 0.1541363176121021 0  0.2296339016332438 0.1597280261969788 0  0.238348372815025 0.1368713418351483 0  0.2460399618407632 0.1705620587824227 0  0.3193133202755013 0.1460459073405674 0  0.3272191874237106 0.1310770977832356 0  0.3056626962672545 0.1462841663847227 0  0.2234150974217223 0.1558215752574715 0  0.2304119763419897 0.1515908441060641 0  0.3141745521465447 0 0  0.2853857357028925 0.1110828225342078 0  0.3245469487057487 0.02783302239578031 0  0.2340427519707383 0.12500661673201 0  0.2565972207468325 0.1466368372771288 0  0.2846721669765922 0.1457902303354471 0  0.3198495352051576 0.1594009174606977 0  0.247794183473202 0.05155939024503531 0  0.2507143478459989 0.1602321207261197 0  0.3298647941762166 0.154951077946048 0  0.4433053055141081 0 0  0.416528437774832 0.02576952322240761 0  0.3316683313872936 0.1433924279692641 0  0.3419037881374767 0.1376590441034941 0  0.2968565228222139 0.1734776848403526 0  0.3527566348301668 0.1449455739485435 0  0.3411001259021957 0.1498303228783227 0  0.3296083350321284 0.1156006243865368 0  0.3052148703289762 0.176135200920133 0  0.4410855102972552 0.03751680874040594 0  </DataArray>
</Points>
<Cells>
<DataArray  type="UInt32"  Name="connectivity"  format="ascii">0 1 2  3 4 5  6 7 8  9 10 11  0 12 2  13 14 15  16 10 11  17 6 8  18 14 15  19 20 21  22 23 24  25 26 27  28 29 30  26 10 31  32 4 5  0 1 33  34 35 33  36 37 38  28 29 39  34 35 37  9 10 31  16 10 40  41 42 43  13 44 2  16 45 46  22 23 47  48 44 14  36 37 49  16 45 11  50 51 52  3 53 4  28 39 54  55 17 8  34 45 11  56 44 2  0 12 8  57 58 30  0 7 8  56 53 4  25 10 40  59 60 61  62 20 21  25 26 10  34 45 63  34 33 63  55 17 64  22 47 65  35 37 38  18 66 15  42 43 67  55 12 8  68 69 70  3 45 53  13 44 14  9 49 31  48 71 14  22 72 52  73 39 74  75 27 76  9 37 49  42 77 67  3 45 46  25 27 78  59 60 74  41 43 79  55 12 15  80 81 38  59 72 61  23 24 82  50 52 61  56 1 53  77 83 84  32 85 4  22 72 24  60 39 54  73 27 76  60 39 74  55 66 15  34 11 86  50 54 61  77 67 84  80 23 82  26 74 31  85 48 87  13 12 2  83 84 69  75 27 78  72 52 61  45 53 63  75 78 70  25 40 88  26 74 89  59 72 90  29 43 79  59 74 31  1 33 63  80 23 91  48 44 87  3 46 92  3 5 92  59 90 31  1 53 63  35 81 38  73 39 93  29 39 93  56 1 2  80 38 82  13 12 15  80 94 91  19 6 21  23 47 91  71 95 96  80 94 97  62 64 21  98 81 7  72 24 90  75 67 84  22 52 99  36 49 90  80 81 97  51 52 99  60 54 61  98 6 7  68 78 70  19 6 100  56 4 87  98 81 97  49 90 31  98 6 100  94 101 97  9 37 86  75 67 76  73 27 89  17 64 21  75 84 70  43 67 76  68 78 88  29 43 93  35 81 102  58 30 79  58 41 79  34 37 86  35 33 102  17 6 21  73 74 89  22 99 65  103 47 65  56 44 87  85 4 87  36 38 82  98 101 100  36 24 90  95 104 96  9 11 86  84 69 70  43 76 93  25 78 88  29 30 79  26 27 89  0 33 102  18 14 96  81 7 102  36 24 82  18 104 96  71 14 96  73 76 93  98 101 97  103 99 65  0 7 102  </DataArray>
<DataArray  type="UInt32"  Name="offsets"  format="ascii">3 6 9 12 15 18 21 24 27 30 33 36 39 42 45 48 51 54 57 60 63 66 69 72 75 78 81 84 87 90 93 96 99 102 105 108 111 114 117 120 123 126 129 132 135 138 141 144 147 150 153 156 159 162 165 168 171 174 177 180 183 186 189 192 195 198 201 204 207 210 213 216 219 222 225 228 231 234 237 240 243 246 249 252 255 258 261 264 267 270 273 276 279 282 285 288 291 294 297 300 303 306 309 312 315 318 321 324 327 330 333 336 339 342 345 348 351 354 357 360 363 366 369 372 375 378 381 384 387 390 393 396 399 402 405 408 411 414 417 420 423 426 429 432 435 438 441 444 447 450 453 456 459 462 465 468 471 474 477 480 483 486 489 492 495 498 501 504 507 </DataArray>
<DataArray  type="UInt8"  Name="types"  format="ascii">5 5 5 5 5 5 5 5 5 5 5 5 5 5 5 5 5 5 5 5 5 5 5 5 5 5 5 5 5 5 5 5 5 5 5 5 5 5 5 5 5 5 5 5 5 5 5 5 5 5 5 5 5 5 5 5 5 5 5 5 5 5 5 5 5 5 5 5 5 5 5 5 5 5 5 5 5 5 5 5 5 5 5 5 5 5 5 5 5 5 5 5 5 5 5 5 5 5 5 5 5 5 5 5 5 5 5 5 5 5 5 5 5 5 5 5 5 5 5 5 5 5 5 5 5 5 5 5 5 5 5 5 5 5 5 5 5 5 5 5 5 5 5 5 5 5 5 5 5 5 5 5 5 5 5 5 5 5 5 5 5 5 5 5 5 5 5 5 5 </DataArray>
</Cells>
<PointData  Vectors="f_43-0"> 
<DataArray  type="Float64"  Name="f_43-0"  NumberOfComponents="3" format="ascii">3.1763490319184087e-02 1.5501735679059191e-03 0.0000000000000000e+00  3.2536294850412199e-02 1.7402625333250629e-03 0.0000000000000000e+00  3.2326782001282403e-02 1.1089930757047406e-03 0.0000000000000000e+00  3.4563703787419374e-02 1.5043005557585716e-03 0.0000000000000000e+00  3.2071781583887980e-02 5.6488188794215789e-04 0.0000000000000000e+00  3.4097985969833780e-02 4.5420543159171815e-04 0.0000000000000000e+00  3.1024136614578420e-02 1.0857581879883020e-03 0.0000000000000000e+00  3.1159552832698081e-02 1.5405270472796150e-03 0.0000000000000000e+00  3.1575119611036762e-02 1.1127339309027488e-03 0.0000000000000000e+00  3.2334497285930866e-02 5.7843380919982094e-03 0.0000000000000000e+00  3.4097395239909976e-02 7.6936123690925055e-03 0.0000000000000000e+00  3.3968291875803136e-02 4.3907904942812126e-03 0.0000000000000000e+00  3.1898260447035046e-02 9.7343595679854537e-04 0.0000000000000000e+00  3.2149219368144563e-02 6.4664308583554128e-04 0.0000000000000000e+00  3.0244115302100062e-02 2.1134692167639518e-04 0.0000000000000000e+00  3.1864039842267884e-02 5.7486821757543128e-04 0.0000000000000000e+00  3.5692741571024006e-02 4.5882340205940855e-03 0.0000000000000000e+00  3.1336861809077028e-02 8.9675244044566205e-04 0.0000000000000000e+00  3.1780358230248433e-02 3.7062649700347021e-04 0.0000000000000000e+00  3.0788126991583648e-02 7.2760673944211420e-04 0.0000000000000000e+00  3.0992157953186401e-02 4.7397322267588715e-04 0.0000000000000000e+00  3.1112312240317849e-02 7.4116899795289876e-04 0.0000000000000000e+00  2.6674680980158055e-02 2.5182758699576501e-03 0.0000000000000000e+00  2.8562953159241213e-02 2.1959589020638854e-03 0.0000000000000000e+00  2.8083036491424442e-02 3.8052237106057226e-03 0.0000000000000000e+00  3.6236846821826159e-02 1.0264066153292881e-02 0.0000000000000000e+00  3.1650804236148890e-02 1.0639859369712375e-02 0.0000000000000000e+00  3.2270655583781595e-02 1.4116409404236427e-02 0.0000000000000000e+00  1.4218558830197653e-02 7.2056617066279301e-03 0.0000000000000000e+00  1.4691701861969433e-02 1.2293157395298964e-02 0.0000000000000000e+00  7.1832159803406331e-03 7.5323921054946648e-03 0.0000000000000000e+00  3.0166732658413416e-02 7.8667643781133983e-03 0.0000000000000000e+00  0.0000000000000000e+00 0.0000000000000000e+00 0.0000000000000000e+00  3.1973271930728020e-02 2.2636471814276040e-03 0.0000000000000000e+00  3.2607485550963482e-02 3.2215406922000930e-03 0.0000000000000000e+00  3.1247847262953904e-02 2.7918267871662561e-03 0.0000000000000000e+00  2.9611165040538377e-02 4.2051963556496968e-03 0.0000000000000000e+00  3.1332896449979449e-02 4.1552899185017976e-03 0.0000000000000000e+00  3.0235427557537449e-02 2.9885008585062776e-03 0.0000000000000000e+00  2.0974773856985839e-02 1.1252645875249026e-02 0.0000000000000000e+00  3.7714218840026313e-02 6.3300540054840827e-03 0.0000000000000000e+00  0.0000000000000000e+00 0.0000000000000000e+00 0.0000000000000000e+00  0.0000000000000000e+00 0.0000000000000000e+00 0.0000000000000000e+00  1.5342540678839403e-02 1.3765073411431987e-02 0.0000000000000000e+00  3.2008549738722893e-02 4.7333021085969792e-04 0.0000000000000000e+00  3.4188455923765522e-02 2.8581685622798866e-03 0.0000000000000000e+00  3.5896515414793252e-02 2.4648245899584116e-03 0.0000000000000000e+00  2.7146483701982232e-02 1.4980027566199444e-03 0.0000000000000000e+00  0.0000000000000000e+00 0.0000000000000000e+00 0.0000000000000000e+00  3.0369293186734727e-02 5.6919097599255290e-03 0.0000000000000000e+00  2.1207279155614121e-02 3.1422752769691806e-03 0.0000000000000000e+00  1.9552521973490000e-02 1.1742774150054079e-03 0.0000000000000000e+00  2.4345697180393387e-02 2.8390776101747330e-03 0.0000000000000000e+00  3.3489849635173090e-02 1.7157190108801710e-03 0.0000000000000000e+00  1.9337276666882192e-02 5.8802052146743420e-03 0.0000000000000000e+00  3.1613869218949743e-02 7.0543128753369376e-04 0.0000000000000000e+00  3.2915125888901414e-02 1.1094055350919167e-03 0.0000000000000000e+00  0.0000000000000000e+00 0.0000000000000000e+00 0.0000000000000000e+00  0.0000000000000000e+00 0.0000000000000000e+00 0.0000000000000000e+00  2.6875763631220920e-02 7.2071095242057662e-03 0.0000000000000000e+00  2.3576239223755582e-02 8.0911046670695281e-03 0.0000000000000000e+00  2.4119498636145778e-02 5.3791625311113422e-03 0.0000000000000000e+00  3.1186972019041092e-02 5.4985078925705278e-04 0.0000000000000000e+00  3.2976847758948415e-02 2.3471369905745314e-03 0.0000000000000000e+00  3.1344491052764219e-02 6.5636160834023122e-04 0.0000000000000000e+00  2.5764921038528503e-02 1.5838779295176122e-03 0.0000000000000000e+00  3.1698851272523865e-02 4.5448697482055624e-04 0.0000000000000000e+00  2.0698118703906601e-02 1.4766448020661526e-02 0.0000000000000000e+00  4.1622576043186504e-02 1.2444721086991862e-02 0.0000000000000000e+00  3.0894888516831462e-02 1.1930384470452360e-02 0.0000000000000000e+00  3.6606074057743652e-02 1.5340821890617012e-02 0.0000000000000000e+00  0.0000000000000000e+00 0.0000000000000000e+00 0.0000000000000000e+00  2.6439902524366957e-02 4.5499715226755191e-03 0.0000000000000000e+00  2.6167197879895184e-02 1.4334008762337178e-02 0.0000000000000000e+00  2.7072452835961155e-02 1.0628854946271088e-02 0.0000000000000000e+00  3.2340089982528061e-02 1.6631461492117524e-02 0.0000000000000000e+00  2.5897357004013147e-02 1.6682156229357401e-02 0.0000000000000000e+00  0.0000000000000000e+00 0.0000000000000000e+00 0.0000000000000000e+00  3.7709396964321990e-02 1.3605148804665342e-02 0.0000000000000000e+00  7.4606952580032341e-03 8.8194299234712493e-03 0.0000000000000000e+00  2.9716550675635261e-02 2.1290545742620407e-03 0.0000000000000000e+00  3.0649331043579631e-02 2.0594067550574317e-03 0.0000000000000000e+00  2.9210561216998308e-02 3.0409821946517737e-03 0.0000000000000000e+00  0.0000000000000000e+00 0.0000000000000000e+00 0.0000000000000000e+00  2.5628413801748431e-02 1.3960815141078768e-02 0.0000000000000000e+00  0.0000000000000000e+00 0.0000000000000000e+00 0.0000000000000000e+00  3.2611234786956662e-02 4.4059504642157618e-03 0.0000000000000000e+00  3.1770594711175965e-02 6.3141624970440525e-04 0.0000000000000000e+00  4.0443042861059597e-02 9.3981083258646292e-03 0.0000000000000000e+00  2.9333207169174813e-02 1.2688439614703643e-02 0.0000000000000000e+00  2.8531171629576555e-02 5.5885731589086574e-03 0.0000000000000000e+00  2.8841225264639173e-02 1.5266467002863944e-03 0.0000000000000000e+00  3.5527627230519346e-02 1.1479733535648367e-03 0.0000000000000000e+00  2.0911259697224065e-02 1.4888494605823801e-02 0.0000000000000000e+00  2.9611557318524405e-02 1.3438764018059357e-03 0.0000000000000000e+00  0.0000000000000000e+00 0.0000000000000000e+00 0.0000000000000000e+00  3.0534241277230357e-02 1.9034763465626244e-04 0.0000000000000000e+00  3.0197167831925168e-02 1.6417627786244760e-03 0.0000000000000000e+00  3.0620464139038614e-02 1.4042304053450950e-03 0.0000000000000000e+00  2.3744128932211096e-02 1.4651620527988750e-03 0.0000000000000000e+00  3.0606449541155670e-02 9.8950330704059182e-04 0.0000000000000000e+00  3.0198704541977178e-02 1.1630384581747277e-03 0.0000000000000000e+00  3.1317893048675063e-02 2.0157934604996589e-03 0.0000000000000000e+00  2.3219924131820825e-02 8.4062700725172725e-04 0.0000000000000000e+00  3.1119863847198261e-02 1.2704123658490124e-04 0.0000000000000000e+00  </DataArray> 
</PointData> 
</Piece>
</UnstructuredGrid>
</VTKFile>