<?xml version="1.0"?>
<VTKFile type="UnstructuredGrid"  version="0.1"  >
<UnstructuredGrid>
<Piece  NumberOfPoints="105" NumberOfCells="169">
<Points>
<DataArray  type="Float64"  NumberOfComponents="3"  format="ascii">0.3946216884789568 0.2000000000001512 0  0.4019979587101454 0.1959834479682427 0  0.3946216884797873 0.1943028057712679 0  0.3871533862424271 0.1959250838464788 0  0.4058241418354857 0.19 0  0.3983558395983636 0.19 0  0.3908875373612097 0.19 0  0.4543681063767173 0.1676928600783137 0  0.4456512193123995 0.1563006663224736 0  0.4634554111966759 0.156587601803556 0  0.5019588293971892 0.1448324961346233 0  0.5202014138752529 0.1378594850692911 0  0.5186581766834214 0.1505504706653799 0  0.5461387848636305 0.1174764669537213 0  0.5361687701469152 0.1326608756097835 0  0.5197325460646487 0.1214075108099659 0  0.4953767731769588 0.1188694761679334 0  0.506255180108809 0.1312411055441881 0  0.4552963513014363 0.145444894720247 0  0.4735622322288027 0.1489594066447112 0  0.430606184336534 0.1007106891413896 0  0.4121197549442807 0.08306196356607598 0  0.4341927647953854 0.06945916972568383 0  0.5257318662464058 0.1055286630332995 0  0.5082652246192162 0.1565876018036352 0  0.4474989647342493 0.1297107067022473 0  0.4322147276797816 0.1208036360979848 0  0.4500639844785546 0.1038268107662773 0  0.4538259418580106 0.08513891830322172 0  0.4582183089687113 0.05889916916817712 0  0.4771650921173667 0.0345682490428623 0  0.4786311469264966 0.07193451402067624 0  0.3871533862426517 0.1622083790690482 0  0.4004709881341373 0.156587601801244 0  0.383930166391577 0.149077512173999 0  0.464700493006123 0.1337957577261608 0  0.5869673343216626 0 0  0.5932743238853959 0.04945528001359441 0  0.5584639495217296 0.03508113340585634 0  0.5081447438790341 0.05715290841304708 0  0.4614662289214904 0.1185262515411474 0  0.505337249077668 0.1024328896935337 0  0.431963199665431 0.1622083790702696 0  0.4308549333301598 0.1502035540486048 0  0.4116738586544235 0.1041859387663523 0  0.4900906149793102 0.1565876018036352 0  0.4767730130879849 0.1622083790703084 0  0.5443827500055026 0.09366669778791233 0  0.3871533862426518 0.1004535961197204 0  0.4048211958526272 0.1196730942586016 0  0.387533158164613 0.1229770158841918 0  0.5390824052225628 0.06744833187951048 0  0.5212239823753633 0.08492404393226735 0  0.5215828265105156 0.1622083790703317 0  0.5349004284018322 0.1565876018036672 0  0.4433053055141081 0 0  0.4410855102972552 0.03751680874040594 0  0.3969581968524311 0.1447077887708589 0  0.5666194772443838 0.07265723178580256 0  0.4767730130879849 0.1004582016456482 0  0.4895008759286886 0 0  0.4095582929540822 0.1690366057399949 0  0.3975186920292402 0.1660535232065472 0  0.4096953638692593 0.1593611747926069 0  0.4020899907169248 0.1826726487248222 0  0.4215978938789503 0.1660535232066034 0  0.4777970859082697 0.1375242924454789 0  0.4423561517299195 0.1449296933988149 0  0.3871183818181629 0.1813492091082587 0  0.3946170212231889 0.1837683952945248 0  0.442117717086971 0.1672874945454806 0  0.477253129614999 0.1229170029909243 0  0.4990943684003321 0.08379643703559929 0  0.4143465137990051 0.05322961011747924 0  0.4666592720111949 0.1673206601298049 0  0.4870209690086496 0.1445552225959656 0  0.5373680609405097 0 0  0.5691769360607744 0.103623921999164 0  0.3946216884797873 0.1755365127550408 0  0.4200158654557485 0.1549967047228304 0  0.5312943323845036 0.1447479119997123 0  0.4095582929540587 0.1783322890925096 0  0.402719283013572 0.174362078603009 0  0.4163973028945601 0.1743620786030245 0  0.3870163828938027 0.1711802904735331 0  0.5312379346123596 0.03921294785544463 0  0.5656709189996393 0.1218263852353965 0  0.3881774741414789 0.1375237980955535 0  0.4007921484923099 0.1334520017217418 0  0.4244948974283196 0.1755365127551117 0  0.4170265951911974 0.1826726487248186 0  0.4094216635085727 0.1459162970206419 0  0.4171240435965357 0.130709948522703 0  0.4476321386943704 0.1742462878721009 0  0.4319720988215174 0.1712601408791398 0  0.4095582929540592 0.1849109489303113 0  0.4132924440726327 0.19 0  0.510662702819522 0.02256181955995177 0  0.4214619365707062 0.1433505759463181 0  0.4908029823839455 0.1335072113564198 0  0.4767269250530047 0.1713973971258736 0  0.4315229872852132 0.1375769537565516 0  0.5448392573395288 0.1456266733529302 0  0.5536582001352554 0.1343709232030346 0  0.4191531770983273 0.1155832460350826 0  </DataArray>
</Points>
<Cells>
<DataArray  type="UInt32"  Name="connectivity"  format="ascii">0 1 2  0 3 2  4 5 1  6 3 2  5 1 2  5 6 2  7 8 9  10 11 12  13 14 15  16 17 15  18 9 19  20 21 22  23 13 15  10 24 12  25 26 27  20 28 22  29 30 31  32 33 34  10 11 17  18 19 35  36 37 38  39 30 31  40 25 27  16 15 41  42 8 43  18 8 9  20 21 44  10 45 24  46 45 19  23 13 47  48 49 44  48 21 44  48 49 50  39 51 52  53 54 12  55 56 30  33 34 57  51 38 58  59 40 27  29 56 22  55 60 30  61 62 63  4 5 64  61 65 63  20 28 27  37 38 58  66 19 35  8 43 67  6 68 69  20 26 27  23 15 41  59 16 41  7 8 70  59 40 71  39 72 52  73 56 22  7 9 74  59 16 71  32 33 62  45 19 75  76 36 38  59 72 41  59 28 27  77 47 58  39 72 31  78 64 69  42 79 65  59 28 31  42 8 70  54 12 80  61 81 82  29 56 30  61 81 83  61 82 62  78 68 84  46 9 74  5 6 69  33 62 63  61 83 65  59 72 31  39 51 85  77 13 47  79 65 63  51 38 85  78 64 82  42 79 43  77 13 86  87 50 88  5 64 69  89 90 83  51 47 58  76 38 85  78 62 84  91 92 88  7 93 70  89 65 94  46 9 19  4 64 95  78 68 69  96 90 95  29 28 22  60 76 97  76 85 97  53 24 12  91 33 63  91 79 63  18 25 35  42 70 94  32 62 84  91 79 98  66 71 35  29 28 31  66 71 99  73 21 22  46 74 100  42 65 94  10 17 99  101 25 26  23 41 52  49 50 88  78 82 62  101 92 26  89 83 65  18 25 67  81 64 82  81 90 83  91 33 57  79 43 98  96 4 95  102 14 103  91 92 98  81 64 95  101 25 67  81 90 95  49 92 88  18 8 67  40 71 35  87 34 57  23 47 52  11 14 15  72 41 52  11 17 15  16 71 99  101 92 98  102 14 80  10 45 75  40 25 35  39 30 97  11 14 80  101 43 67  16 17 99  102 54 80  66 19 75  91 88 57  51 47 52  87 88 57  13 14 103  39 85 97  11 12 80  49 44 104  13 86 103  49 92 104  10 99 75  20 44 104  60 30 97  92 26 104  66 99 75  20 26 104  101 43 98  </DataArray>
<DataArray  type="UInt32"  Name="offsets"  format="ascii">3 6 9 12 15 18 21 24 27 30 33 36 39 42 45 48 51 54 57 60 63 66 69 72 75 78 81 84 87 90 93 96 99 102 105 108 111 114 117 120 123 126 129 132 135 138 141 144 147 150 153 156 159 162 165 168 171 174 177 180 183 186 189 192 195 198 201 204 207 210 213 216 219 222 225 228 231 234 237 240 243 246 249 252 255 258 261 264 267 270 273 276 279 282 285 288 291 294 297 300 303 306 309 312 315 318 321 324 327 330 333 336 339 342 345 348 351 354 357 360 363 366 369 372 375 378 381 384 387 390 393 396 399 402 405 408 411 414 417 420 423 426 429 432 435 438 441 444 447 450 453 456 459 462 465 468 471 474 477 480 483 486 489 492 495 498 501 504 507 </DataArray>
<DataArray  type="UInt8"  Name="types"  format="ascii">5 5 5 5 5 5 5 5 5 5 5 5 5 5 5 5 5 5 5 5 5 5 5 5 5 5 5 5 5 5 5 5 5 5 5 5 5 5 5 5 5 5 5 5 5 5 5 5 5 5 5 5 5 5 5 5 5 5 5 5 5 5 5 5 5 5 5 5 5 5 5 5 5 5 5 5 5 5 5 5 5 5 5 5 5 5 5 5 5 5 5 5 5 5 5 5 5 5 5 5 5 5 5 5 5 5 5 5 5 5 5 5 5 5 5 5 5 5 5 5 5 5 5 5 5 5 5 5 5 5 5 5 5 5 5 5 5 5 5 5 5 5 5 5 5 5 5 5 5 5 5 5 5 5 5 5 5 5 5 5 5 5 5 5 5 5 5 5 5 </DataArray>
</Cells>
<PointData  Vectors="f_43-0"> 
<DataArray  type="Float64"  Name="f_43-0"  NumberOfComponents="3" format="ascii">3.1878145720907341e-05 -1.6573705249038262e-04 0.0000000000000000e+00  2.4982209027660204e-05 -1.7889026654796341e-04 0.0000000000000000e+00  2.0702549170090366e-05 -1.6335562155266316e-04 0.0000000000000000e+00  2.2817257493850435e-05 -1.4938205479363855e-04 0.0000000000000000e+00  1.3319054601018506e-05 -1.8441038552903521e-04 0.0000000000000000e+00  1.2644444356418333e-05 -1.6914957419746594e-04 0.0000000000000000e+00  1.1933344858810586e-05 -1.5427267855729917e-04 0.0000000000000000e+00  3.8403344714578802e-01 7.0206253116934846e-04 0.0000000000000000e+00  4.4552402778392203e-01 1.7207592984454212e-03 0.0000000000000000e+00  4.4626877053515818e-01 1.7245723411070894e-03 0.0000000000000000e+00  4.7816942581000926e-01 4.6030266330984579e-03 0.0000000000000000e+00  4.8718003934391019e-01 7.3400731420816268e-03 0.0000000000000000e+00  4.6997289390976626e-01 5.6752265024267888e-03 0.0000000000000000e+00  4.9224811794804291e-01 1.3049157523479992e-02 0.0000000000000000e+00  4.9105878696267719e-01 1.0644591876249039e-02 0.0000000000000000e+00  4.9206225977653129e-01 8.2797770956792530e-03 0.0000000000000000e+00  4.9133789691734880e-01 5.8680609521712251e-03 0.0000000000000000e+00  4.8949326514943609e-01 6.1260602589277907e-03 0.0000000000000000e+00  4.7280355281657949e-01 2.7467768276230229e-03 0.0000000000000000e+00  4.6830297192546461e-01 2.6773150620555308e-03 0.0000000000000000e+00  4.9058737766225669e-01 7.4455869909393485e-03 0.0000000000000000e+00  4.9337166709782715e-01 9.6168765998167639e-03 0.0000000000000000e+00  4.9079849178191254e-01 5.3599441224501361e-03 0.0000000000000000e+00  4.9129392526841936e-01 9.2045887802610499e-03 0.0000000000000000e+00  4.5116566145142911e-01 3.6972546069570966e-03 0.0000000000000000e+00  4.8575992693738734e-01 4.4601218219924178e-03 0.0000000000000000e+00  4.8729650938602342e-01 6.3569513022485548e-03 0.0000000000000000e+00  4.9083389977211134e-01 5.8243329800181905e-03 0.0000000000000000e+00  4.9128085991958109e-01 5.4052830139517394e-03 0.0000000000000000e+00  4.8627759370906409e-01 3.4488103786019580e-03 0.0000000000000000e+00  4.4405020640667603e-01 2.6277309295656831e-03 0.0000000000000000e+00  4.8825500870193089e-01 4.3446113521947421e-03 0.0000000000000000e+00  4.0968225996041163e-01 4.4376554054968379e-03 0.0000000000000000e+00  4.3741795581420412e-01 4.1198455226015684e-03 0.0000000000000000e+00  4.5193555526486923e-01 1.0167445704245560e-02 0.0000000000000000e+00  4.8518596467131847e-01 3.8363418853851715e-03 0.0000000000000000e+00  0.0000000000000000e+00 0.0000000000000000e+00 0.0000000000000000e+00  4.5417969612609072e-01 7.8181880300981967e-03 0.0000000000000000e+00  4.3660391932190085e-01 6.6233437302046323e-03 0.0000000000000000e+00  4.7928271788959870e-01 3.6986516593654649e-03 0.0000000000000000e+00  4.8979737885742258e-01 4.8703348163286215e-03 0.0000000000000000e+00  4.9143158355624522e-01 6.8552324717339411e-03 0.0000000000000000e+00  4.1811434546379533e-01 1.2587955729282648e-03 0.0000000000000000e+00  4.6105050225174316e-01 2.8059632751769718e-03 0.0000000000000000e+00  4.8986717607876906e-01 1.0663239350271456e-02 0.0000000000000000e+00  4.4893044869354415e-01 2.5873180889769247e-03 0.0000000000000000e+00  4.2236150819168256e-01 1.5189708153080627e-03 0.0000000000000000e+00  4.8848001650582956e-01 1.1360842256629018e-02 0.0000000000000000e+00  4.9104465321877400e-01 1.7998065899700554e-02 0.0000000000000000e+00  4.8471746026506368e-01 1.1291281314503928e-02 0.0000000000000000e+00  4.8059716186325041e-01 1.6669419428947171e-02 0.0000000000000000e+00  4.8267398487407270e-01 7.8036000482547023e-03 0.0000000000000000e+00  4.8880603869367384e-01 7.7515707001354116e-03 0.0000000000000000e+00  4.2840711676273063e-01 4.0544502040319643e-03 0.0000000000000000e+00  4.5586873264031130e-01 7.0579519634846885e-03 0.0000000000000000e+00  0.0000000000000000e+00 0.0000000000000000e+00 0.0000000000000000e+00  4.5515491530112046e-01 2.2282449740212871e-03 0.0000000000000000e+00  4.6404295973650816e-01 8.0721002490960793e-03 0.0000000000000000e+00  4.8005896137078929e-01 1.1197364796642456e-02 0.0000000000000000e+00  4.9111933402586899e-01 5.3569285789567718e-03 0.0000000000000000e+00  0.0000000000000000e+00 0.0000000000000000e+00 0.0000000000000000e+00  3.6877848186144008e-01 1.0695826658573659e-03 0.0000000000000000e+00  3.8952715308373159e-01 2.2338630813374194e-03 0.0000000000000000e+00  4.2869865387804912e-01 2.6048461987603199e-03 0.0000000000000000e+00  1.8317106300146219e-01 -1.0163741672804476e-05 0.0000000000000000e+00  3.9326690461767810e-01 1.0695081164235748e-03 0.0000000000000000e+00  4.8384518130246107e-01 3.7990097326589547e-03 0.0000000000000000e+00  4.7221138493395831e-01 3.0558652428359983e-03 0.0000000000000000e+00  2.0755509013465948e-01 2.7287786169656960e-04 0.0000000000000000e+00  1.6019417905098629e-01 2.0918846437782382e-05 0.0000000000000000e+00  3.8618335332270937e-01 7.3039619510501376e-04 0.0000000000000000e+00  4.8995085187478049e-01 4.8003132051803749e-03 0.0000000000000000e+00  4.8959604178360638e-01 5.7604998184489801e-03 0.0000000000000000e+00  4.8598315949715393e-01 4.9522266974060970e-03 0.0000000000000000e+00  3.8787263951751105e-01 8.3501561615034715e-04 0.0000000000000000e+00  4.7708727056300532e-01 3.6384758604952111e-03 0.0000000000000000e+00  0.0000000000000000e+00 0.0000000000000000e+00 0.0000000000000000e+00  4.8754456212503772e-01 1.7235647078022692e-02 0.0000000000000000e+00  2.9838706349113148e-01 7.8037670882305803e-04 0.0000000000000000e+00  4.4661236202045307e-01 2.6673334389821298e-03 0.0000000000000000e+00  4.8178597097612208e-01 8.4433673802776967e-03 0.0000000000000000e+00  2.6034675045077099e-01 1.6860066698875349e-04 0.0000000000000000e+00  3.1391917047520801e-01 5.9228928625386834e-04 0.0000000000000000e+00  3.1522745211825315e-01 3.9975849476400478e-04 0.0000000000000000e+00  3.4548669362761042e-01 1.9504484313453260e-03 0.0000000000000000e+00  4.4933081828268329e-01 3.7627458161536807e-03 0.0000000000000000e+00  4.9183712743373265e-01 1.8871942815613732e-02 0.0000000000000000e+00  4.7005765533904809e-01 1.2849936253814758e-02 0.0000000000000000e+00  4.7678697986894858e-01 1.0009665351381482e-02 0.0000000000000000e+00  3.0104658385435840e-01 1.7137401279653281e-04 0.0000000000000000e+00  1.8375294410827181e-01 -9.7308932659792804e-05 0.0000000000000000e+00  4.6538798295912392e-01 5.4384830075543556e-03 0.0000000000000000e+00  4.8161160896274985e-01 7.1282778869494606e-03 0.0000000000000000e+00  3.1864480066562462e-01 2.0801503639337487e-04 0.0000000000000000e+00  3.5046585456251000e-01 4.5762308577876614e-04 0.0000000000000000e+00  1.3541334829666793e-01 -1.2972079189349414e-04 0.0000000000000000e+00  1.3956195672900714e-05 -2.0002129504000167e-04 0.0000000000000000e+00  3.7976657376315581e-01 -8.3827420305022514e-04 0.0000000000000000e+00  4.7142430154283016e-01 4.4768953040345777e-03 0.0000000000000000e+00  4.8736797367013351e-01 4.7460678055497498e-03 0.0000000000000000e+00  3.5239734346898299e-01 6.7618606313596516e-04 0.0000000000000000e+00  4.7910712971963454e-01 4.4962112663557300e-03 0.0000000000000000e+00  4.8261226112984451e-01 1.1326468388986459e-02 0.0000000000000000e+00  4.9162256460644016e-01 1.5109018189816961e-02 0.0000000000000000e+00  4.8750793772844381e-01 8.5817155850634284e-03 0.0000000000000000e+00  </DataArray> 
</PointData> 
</Piece>
</UnstructuredGrid>
</VTKFile>