<?xml version="1.0"?>
<VTKFile type="UnstructuredGrid"  version="0.1"  >
<UnstructuredGrid>
<Piece  NumberOfPoints="100" NumberOfCells="168">
<Points>
<DataArray  type="Float64"  NumberOfComponents="3"  format="ascii">0.3535460261755617 0.19 0  0.3528922713220932 0.2000185703532356 0  0.3590076176283495 0.196411355804271 0  0.3473758401723931 0.1961819304478349 0  0.3535460261749672 0.21 0  0.3473758401724931 0.2038180695522752 0  0.3590471196690275 0.2036304442587945 0  0.3796850840047755 0.200000000000134 0  0.3871533862418661 0.2029084173136212 0  0.3871533862424271 0.1959250838464788 0  0.3650630746574081 0.199866017807523 0  0.3722167817676917 0.2029084173136195 0  0.372246743208829 0.1959123236376545 0  0.3274069683451451 0.2000000000000796 0  0.3348752705822316 0.202908417313609 0  0.3347912413592433 0.1959225448935183 0  0.3127789816668748 0.1998657885438805 0  0.3199386661080599 0.202908417313604 0  0.3199680582793816 0.1959123018030061 0  0.3417402379596385 0.1998691686391011 0  0.3684826306491596 0.21 0  0.3759509328862226 0.21 0  0.3311411194636928 0.21 0  0.3386094217007701 0.21 0  0.383419235123329 0.21 0  0.3908875373604028 0.21 0  0.3460777239384295 0.19 0  0.3460777239378666 0.21 0  0.3087362127527544 0.19 0  0.3012679105156187 0.19 0  0.3066757059912147 0.1964092924317024 0  0.361014328412667 0.19 0  0.3796850840055151 0.1943028057712579 0  0.3647484795312433 0.1943028057712484 0  0.3274069683455914 0.1943028057712305 0  0.3124703638713219 0.1943028057712193 0  0.3610143284120516 0.21 0  0.341834128962283 0.1943988119061815 0  0.3650260178642469 0.2054197153269502 0  0.3796850840047754 0.2056971942288865 0  0.3274069683451451 0.2056971942288527 0  0.341845332858566 0.2054104280253135 0  0.3908875373612097 0.19 0  0.3834192351240934 0.19 0  0.3759509328869369 0.19 0  0.3684826306498175 0.19 0  0.3386094217012945 0.19 0  0.3311411194641595 0.19 0  0.3236728172270245 0.19 0  0.3162045149898895 0.19 0  0.3655464778159961 0.1466879707354811 0  0.3738358170836363 0.1565872175614931 0  0.383930166391577 0.149077512173999 0  0.3418349201952718 0.1615259010424026 0  0.3538118084207602 0.155339561103512 0  0.3411001259021957 0.1498303228783227 0  0.3422976980851364 0.1814371791041619 0  0.3871183818181629 0.1813492091082587 0  0.3803545031770169 0.2233799225275491 0  0.3797734699465006 0.2157346552691785 0  0.3868315570898186 0.2161590584307608 0  0.3298647941762166 0.154951077946048 0  0.3304301052933576 0.1665413931712652 0  0.3527566348301668 0.1449455739485435 0  0.3342547353003448 0.176221364131867 0  0.3420590264647178 0.171174416987776 0  0.3125543224194783 0.1825714068210268 0  0.3272791508030818 0.1825813053721834 0  0.3572801772935104 0.2173273935815939 0  0.3722102571583817 0.2173806806735415 0  0.3647484950731696 0.1690362455853913 0  0.3534047339781095 0.1664079800909994 0  0.3646043070190422 0.1595814785132252 0  0.3573906953035386 0.1825704874733474 0  0.3721062650880237 0.1825704912629938 0  0.334769373574778 0.1838585991320073 0  0.3758459195692864 0.1665688727818971 0  0.3498118750569956 0.1834818329761723 0  0.3796850840055151 0.1834818329761566 0  0.350235271979906 0.176105405901683 0  0.3198867512741007 0.1691875758392534 0  0.3199291472277772 0.1784487091275169 0  0.3133418865444516 0.1745347694704089 0  0.3264689647572548 0.1745410252268062 0  0.3871533862426517 0.1622083790690482 0  0.30960746080092 0.166771572284543 0  0.3198495352051576 0.1594009174606977 0  0.3792616967340072 0.1761054533295981 0  0.3052148703289762 0.176135200920133 0  0.3050224637686886 0.1840003691157356 0  0.3647484799225001 0.1783360555704042 0  0.3580172190788822 0.1744509634985612 0  0.3714797435049115 0.1744509558619459 0  0.3716385577875085 0.2254972730720332 0  0.3870163828938027 0.1711802904735331 0  0.3497998287380586 0.2162289176852799 0  0.3199315490584526 0.1848904494130124 0  0.3647474910084925 0.215095947068514 0  0.3647484797606208 0.1848841839272463 0  0.364747590224077 0.2216658739063822 0  </DataArray>
</Points>
<Cells>
<DataArray  type="UInt32"  Name="connectivity"  format="ascii">0 1 2  0 1 3  4 1 5  4 1 6  7 8 9  10 11 12  13 14 15  16 17 18  13 17 18  19 14 15  7 11 12  20 21 11  22 23 14  24 25 8  0 26 3  27 4 5  28 29 30  31 0 2  7 9 32  10 12 33  13 15 34  16 18 35  13 18 34  7 12 32  4 36 6  19 15 37  20 11 38  21 11 39  10 11 38  24 8 39  22 14 40  7 8 39  7 11 39  13 17 40  13 14 40  23 14 41  19 14 41  42 43 9  44 45 12  46 47 15  48 49 18  10 2 6  1 2 6  44 12 32  43 9 32  45 12 33  47 15 34  49 18 35  48 18 34  1 5 3  19 5 3  46 15 37  10 6 38  26 46 37  23 27 41  43 44 32  45 31 33  36 20 38  21 24 39  47 48 34  49 28 35  36 6 38  10 2 33  31 2 33  16 30 35  28 30 35  26 3 37  27 5 41  19 5 41  19 3 37  50 51 52  53 54 55  26 46 56  42 43 57  58 59 60  53 61 62  54 55 63  64 62 65  53 62 65  49 28 66  47 48 67  4 36 68  20 21 69  70 71 72  31 0 73  44 45 74  46 56 75  70 76 72  26 56 77  53 54 71  43 57 78  58 69 59  79 73 77  80 81 82  80 81 83  84 51 76  64 67 75  80 85 86  87 74 78  53 61 55  80 62 86  88 66 89  79 56 65  64 56 65  70 90 91  70 90 92  58 69 93  79 71 65  84 51 52  87 57 94  27 4 95  28 29 89  46 47 75  88 66 82  64 67 83  21 24 59  0 26 77  79 73 91  70 91 71  43 44 78  54 71 72  70 92 76  28 66 89  87 74 92  51 76 72  87 76 94  47 67 75  4 68 95  21 69 59  0 73 77  79 56 77  44 74 78  61 62 86  53 71 65  49 66 96  64 56 75  87 57 78  48 67 96  36 68 97  20 69 97  31 73 98  45 74 98  24 25 60  84 76 94  50 54 72  50 51 72  88 85 82  24 59 60  81 66 82  80 85 82  81 67 83  50 54 63  79 91 71  99 69 93  64 62 83  80 62 83  87 92 76  90 73 91  90 74 92  81 66 96  81 67 96  48 49 96  99 68 97  36 20 97  99 69 97  45 31 98  90 73 98  90 74 98  </DataArray>
<DataArray  type="UInt32"  Name="offsets"  format="ascii">3 6 9 12 15 18 21 24 27 30 33 36 39 42 45 48 51 54 57 60 63 66 69 72 75 78 81 84 87 90 93 96 99 102 105 108 111 114 117 120 123 126 129 132 135 138 141 144 147 150 153 156 159 162 165 168 171 174 177 180 183 186 189 192 195 198 201 204 207 210 213 216 219 222 225 228 231 234 237 240 243 246 249 252 255 258 261 264 267 270 273 276 279 282 285 288 291 294 297 300 303 306 309 312 315 318 321 324 327 330 333 336 339 342 345 348 351 354 357 360 363 366 369 372 375 378 381 384 387 390 393 396 399 402 405 408 411 414 417 420 423 426 429 432 435 438 441 444 447 450 453 456 459 462 465 468 471 474 477 480 483 486 489 492 495 498 501 504 </DataArray>
<DataArray  type="UInt8"  Name="types"  format="ascii">5 5 5 5 5 5 5 5 5 5 5 5 5 5 5 5 5 5 5 5 5 5 5 5 5 5 5 5 5 5 5 5 5 5 5 5 5 5 5 5 5 5 5 5 5 5 5 5 5 5 5 5 5 5 5 5 5 5 5 5 5 5 5 5 5 5 5 5 5 5 5 5 5 5 5 5 5 5 5 5 5 5 5 5 5 5 5 5 5 5 5 5 5 5 5 5 5 5 5 5 5 5 5 5 5 5 5 5 5 5 5 5 5 5 5 5 5 5 5 5 5 5 5 5 5 5 5 5 5 5 5 5 5 5 5 5 5 5 5 5 5 5 5 5 5 5 5 5 5 5 5 5 5 5 5 5 5 5 5 5 5 5 5 5 5 5 5 5 </DataArray>
</Cells>
<PointData  Vectors="f_43-0"> 
<DataArray  type="Float64"  Name="f_43-0"  NumberOfComponents="3" format="ascii">8.1096329895816588e-06 -7.8452527130386406e-05 0.0000000000000000e+00  2.2535897833796632e-05 -8.2152948218893075e-05 0.0000000000000000e+00  1.8154142142552170e-05 -8.9573448511281613e-05 0.0000000000000000e+00  1.6191634963663400e-05 -7.2334728783291462e-05 0.0000000000000000e+00  3.7374237850776406e-05 -8.8451573719026670e-05 0.0000000000000000e+00  2.6841136653788037e-05 -7.6205068496527236e-05 0.0000000000000000e+00  2.9108065864501881e-05 -9.3198699822198629e-05 0.0000000000000000e+00  2.6827019205056276e-05 -1.2494678212745348e-04 0.0000000000000000e+00  3.3015202696363012e-05 -1.3939322676845243e-04 0.0000000000000000e+00  2.0661739382089711e-05 -1.3619232438392894e-04 0.0000000000000000e+00  2.4379947194075549e-05 -1.0067448483493769e-04 0.0000000000000000e+00  3.0507973301336965e-05 -1.1375852805333975e-04 0.0000000000000000e+00  1.9029571596240582e-05 -1.1048504043534746e-04 0.0000000000000000e+00  1.7516503373601427e-05 -4.8383280136404309e-05 0.0000000000000000e+00  2.2718289547969160e-05 -5.9047374380728146e-05 0.0000000000000000e+00  1.3960495046123073e-05 -5.5336637749081470e-05 0.0000000000000000e+00  1.4165406877925196e-05 -3.2478022868782764e-05 0.0000000000000000e+00  1.9017525740090630e-05 -4.1548631603561616e-05 0.0000000000000000e+00  1.1553223505806966e-05 -3.7870662724787281e-05 0.0000000000000000e+00  2.0253043280447183e-05 -6.6394840699453902e-05 0.0000000000000000e+00  4.1368147704289169e-05 -1.1136687777250387e-04 0.0000000000000000e+00  4.3190209825531561e-05 -1.2361982752228152e-04 0.0000000000000000e+00  3.0520577659928124e-05 -5.8506100085745462e-05 0.0000000000000000e+00  3.2919576329476325e-05 -6.7857729630189381e-05 0.0000000000000000e+00  4.4896786858056405e-05 -1.3636487572161657e-04 0.0000000000000000e+00  4.6488653313151942e-05 -1.4957021698437027e-04 0.0000000000000000e+00  7.5361258777208796e-06 -6.7682871558117378e-05 0.0000000000000000e+00  3.5205189855451929e-05 -7.7850265872048439e-05 0.0000000000000000e+00  4.2242512443594843e-06 -2.3680331399112054e-05 0.0000000000000000e+00  3.5039814972824986e-06 -1.7080149658992673e-05 0.0000000000000000e+00  9.6983603983194008e-06 -2.4880871122125425e-05 0.0000000000000000e+00  8.6461270625496653e-06 -8.9804518258327498e-05 0.0000000000000000e+00  1.7128830313259448e-05 -1.2236160058305901e-04 0.0000000000000000e+00  1.5614206562389799e-05 -9.7569561766802266e-05 0.0000000000000000e+00  1.0921194142086634e-05 -4.5507330281299140e-05 0.0000000000000000e+00  8.7218165562946620e-06 -2.9305890355670286e-05 0.0000000000000000e+00  3.9429873596974211e-05 -9.9633281879661227e-05 0.0000000000000000e+00  1.3009244356375822e-05 -6.3832693070887215e-05 0.0000000000000000e+00  3.3160496138335006e-05 -1.0341342155608925e-04 0.0000000000000000e+00  3.6602072185840726e-05 -1.2771737955790243e-04 0.0000000000000000e+00  2.4179184100462861e-05 -5.1526503998872612e-05 0.0000000000000000e+00  2.7697787602206638e-05 -6.9488989169519077e-05 0.0000000000000000e+00  1.0436814866385342e-05 -1.4042574634385893e-04 0.0000000000000000e+00  1.0044370909375066e-05 -1.2704908391445672e-04 0.0000000000000000e+00  9.6146278381697401e-06 -1.1413365029527214e-04 0.0000000000000000e+00  9.1483361752927572e-06 -1.0170889718344093e-04 0.0000000000000000e+00  6.9301463586497350e-06 -5.7525653891511923e-05 0.0000000000000000e+00  6.2929060983933445e-06 -4.8014512729211639e-05 0.0000000000000000e+00  5.6263083236147431e-06 -3.9181341069920858e-05 0.0000000000000000e+00  4.9350887954658017e-06 -3.1059163879700787e-05 0.0000000000000000e+00  3.1692122895341096e-01 8.6030996700488804e-03 0.0000000000000000e+00  3.0433410396754301e-01 4.6261026146804081e-03 0.0000000000000000e+00  3.1839308494414748e-01 4.9314666094396513e-03 0.0000000000000000e+00  2.8046663982774678e-01 9.5224765207995044e-03 0.0000000000000000e+00  3.0081233145613540e-01 8.7902248204073836e-03 0.0000000000000000e+00  3.0423688305363333e-01 1.5894722636082943e-02 0.0000000000000000e+00  1.4604625692049153e-01 1.0187440333291318e-03 0.0000000000000000e+00  1.5280422155314641e-01 1.4468788970504239e-04 0.0000000000000000e+00  2.0552837666832474e-01 -9.2528913058187911e-04 0.0000000000000000e+00  1.1005906975056606e-01 -3.0438676392776742e-04 0.0000000000000000e+00  1.1708705379497929e-01 -2.9879186380883633e-04 0.0000000000000000e+00  2.8899462901399087e-01 1.9119654310904531e-02 0.0000000000000000e+00  2.5542883311935394e-01 1.0405691177816132e-02 0.0000000000000000e+00  3.1479920581576004e-01 1.2925927087196466e-02 0.0000000000000000e+00  1.9820294077733411e-01 3.5076443677079889e-03 0.0000000000000000e+00  2.3852550867274880e-01 4.6770394065174708e-03 0.0000000000000000e+00  1.1913255800530216e-01 2.6910604068145468e-03 0.0000000000000000e+00  1.2663586410846558e-01 1.4375206591792874e-03 0.0000000000000000e+00  1.3203031752814004e-01 -5.8162919083496053e-04 0.0000000000000000e+00  1.3430259819298343e-01 -4.3654335833132491e-04 0.0000000000000000e+00  2.5832652095134767e-01 2.6318494745366234e-03 0.0000000000000000e+00  2.6784301615118083e-01 4.7098282274104274e-03 0.0000000000000000e+00  2.9490958026924413e-01 5.1621401089377971e-03 0.0000000000000000e+00  1.3359003002118172e-01 3.9278853517200413e-04 0.0000000000000000e+00  1.3505558264407747e-01 1.8898549389454814e-04 0.0000000000000000e+00  1.1118043575969255e-01 6.9640051841390893e-04 0.0000000000000000e+00  2.7297911923562229e-01 2.3248282777472555e-03 0.0000000000000000e+00  1.1953062187167501e-01 4.2632817903518117e-04 0.0000000000000000e+00  1.2224863343110212e-01 4.9249221011697606e-05 0.0000000000000000e+00  2.0504685216124172e-01 1.9809368387265478e-03 0.0000000000000000e+00  2.3437365938082871e-01 1.2623192443208326e-02 0.0000000000000000e+00  1.6947006287461180e-01 4.5339246660386304e-03 0.0000000000000000e+00  1.9577448467323452e-01 9.8038778226885968e-03 0.0000000000000000e+00  2.0713166219586571e-01 5.9367194962690693e-03 0.0000000000000000e+00  2.9201145713160642e-01 2.3600253182508432e-03 0.0000000000000000e+00  2.3340949063680735e-01 2.1594851345690235e-02 0.0000000000000000e+00  2.7039088066222422e-01 2.2351038563739361e-02 0.0000000000000000e+00  2.1028389224887029e-01 6.8749855271962054e-04 0.0000000000000000e+00  1.7422858260589791e-01 1.1087045878902036e-02 0.0000000000000000e+00  9.5608914295641612e-02 2.4762668363106015e-03 0.0000000000000000e+00  1.8637893733163127e-01 8.0585804651877018e-04 0.0000000000000000e+00  2.2086900653678057e-01 1.8103024778744006e-03 0.0000000000000000e+00  2.2346281720062941e-01 1.1952574852892256e-03 0.0000000000000000e+00  2.2293086670333229e-01 -1.4777399217879251e-03 0.0000000000000000e+00  2.4940355002469364e-01 1.1033013633117189e-03 0.0000000000000000e+00  1.1512699467168631e-01 -5.6596575576119276e-04 0.0000000000000000e+00  9.1336320860211873e-02 9.6497598964127558e-04 0.0000000000000000e+00  9.8831933832485022e-02 -2.9768678608495827e-04 0.0000000000000000e+00  9.9219144471430404e-02 8.5004248537216294e-05 0.0000000000000000e+00  1.8625971144317183e-01 -1.0577332282735378e-03 0.0000000000000000e+00  </DataArray> 
</PointData> 
</Piece>
</UnstructuredGrid>
</VTKFile>