<?xml version="1.0"?>
<VTKFile type="UnstructuredGrid"  version="0.1"  >
<UnstructuredGrid>
<Piece  NumberOfPoints="102" NumberOfCells="171">
<Points>
<DataArray  type="Float64"  NumberOfComponents="3"  format="ascii">0.476773013087985 0.1999999999998713 0  0.4693047108508938 0.1970915826863783 0  0.4693047108503577 0.2040749161535231 0  0.4917096175621762 0.1999999999998808 0  0.4842413153250809 0.1970915826863873 0  0.4842413153245942 0.2040749161535287 0  0.5066462220363641 0.199999999999908 0  0.4991779197992749 0.1970915826863902 0  0.4991779197988497 0.2040749161535382 0  0.5215828265105155 0.1999999999999228 0  0.5141145242734466 0.1970915826863843 0  0.5141145242731028 0.2040749161535395 0  0.5365194309847112 0.1999999999999436 0  0.5290511287476175 0.1970915826863981 0  0.5290511287473298 0.2040749161535501 0  0.5327852798661811 0.19 0  0.5253169776290537 0.19 0  0.5178486753919799 0.19 0  0.5103803731549078 0.19 0  0.4879754664436223 0.19 0  0.4805071642065402 0.19 0  0.502912070917822 0.19 0  0.4954437686807294 0.19 0  0.4767730130872753 0.2056971942287455 0  0.4917096175615203 0.2056971942287492 0  0.5066462220358396 0.2056971942287649 0  0.5215828265100828 0.2056971942287677 0  0.5365194309843644 0.2056971942287865 0  0.5439623148931173 0.2040856076781014 0  0.5365194309847112 0.1943028057711659 0  0.5215828265105155 0.1943028057711514 0  0.4767730130879849 0.1943028057711153 0  0.4917096175621761 0.1943028057711214 0  0.5066462220363641 0.1943028057711422 0  0.480507164205851 0.21 0  0.4879754664429498 0.21 0  0.5103803731544119 0.21 0  0.5178486753915261 0.21 0  0.5402535821029386 0.21 0  0.54772188434007 0.21 0  0.4954437686800938 0.21 0  0.502912070917267 0.21 0  0.5253169776286404 0.21 0  0.5327852798657868 0.21 0  0.4730388619686996 0.21 0  0.4991779197992711 0.167693385507626 0  0.4900906149793102 0.1565876018036352 0  0.5082652246192162 0.1565876018036352 0  0.499237761463083 0.2192785032300353 0  0.4993542269391089 0.2308107468212473 0  0.5064903940750056 0.2246838314870058 0  0.5123638022628456 0.2310955071885417 0  0.536567636007916 0.2275987754591341 0  0.5347760817351684 0.2414500964404198 0  0.5283542774025207 0.2302880001042248 0  0.5455709551586724 0.2324144452751203 0  0.546982877175164 0.2233942294772845 0  0.5365194309843644 0.2180863504285254 0  0.5444469726554123 0.2157339702670886 0  0.5588244563271773 0.225349035787779 0  0.5519051872593019 0.2166420053265535 0  0.5216178319364539 0.1813492122870838 0  0.5265047000024197 0.2223941974774756 0  0.5286910337265995 0.2154702409242758 0  0.5150278681324471 0.2228450308306156 0  0.5214285426002536 0.2161011329323836 0  0.4767730130872752 0.2184019876485795 0  0.5209814004512184 0.2362962593649592 0  0.5084573036363184 0.2395108277223441 0  0.553378981997341 0.2322691570724318 0  0.5504647692515866 0.2417078359721865 0  0.4910031975930484 0.2171006717137592 0  0.5075668509025225 0.2171084086245455 0  0.5143590539697885 0.2155988592715468 0  0.4917096175621761 0.1826726487251064 0  0.5066462220363641 0.1826726487251085 0  0.5208355992062484 0.2285465546466679 0  0.4767380076620556 0.1813492122870721 0  0.4842366479349569 0.1837683957184343 0  0.5141191916635692 0.1837683957184422 0  0.4867628426197099 0.1672556638427207 0  0.5290511287476175 0.1834818376483974 0  0.5115929969788211 0.1672556638427288 0  0.4841984187204001 0.2159109988582109 0  0.5294745265341012 0.1761054820336709 0  0.5366299525895074 0.1825690825227473 0  0.4842413153250809 0.1755365127551258 0  0.4923756029794709 0.2245693836696246 0  0.4869999746943883 0.2308048359320609 0  0.5141145242734466 0.1755365127551412 0  0.4846260107628763 0.2228898464509046 0  0.4767730130879849 0.1622083790703084 0  0.5215828265105156 0.1622083790703317 0  0.4991779197992725 0.1783172034453956 0  0.4923389098589435 0.1741809711526818 0  0.4767269250530047 0.1713973971258736 0  0.506016929739597 0.1741809711526895 0  0.5349004284018322 0.1565876018036672 0  0.5316967135713353 0.1673421178078786 0  0.5216289307659581 0.1713997813123399 0  0.4991779197992735 0.1849089375109228 0  0.5631143150331265 0.2366473934541688 0  </DataArray>
</Points>
<Cells>
<DataArray  type="UInt32"  Name="connectivity"  format="ascii">0 1 2  3 4 5  6 7 8  9 10 11  12 13 14  9 13 14  6 10 11  3 7 8  0 4 5  15 16 13  17 18 10  19 20 4  21 22 7  0 2 23  3 5 24  6 8 25  9 11 26  12 14 27  12 28 27  9 14 26  6 11 25  3 8 24  0 5 23  15 13 29  16 13 30  9 13 30  12 13 29  0 4 31  20 4 31  0 1 31  19 4 32  18 10 33  21 7 33  22 7 32  17 10 30  6 7 33  6 10 33  3 4 32  3 7 32  9 10 30  34 35 5  36 37 11  38 39 28  40 41 8  42 43 14  34 5 23  44 2 23  35 5 24  40 8 24  36 11 25  41 8 25  42 14 26  43 14 27  38 28 27  37 11 26  44 34 23  35 40 24  41 36 25  43 38 27  37 42 26  22 19 32  18 21 33  16 17 30  45 46 47  40 41 48  49 50 51  52 53 54  52 53 55  56 57 58  59 56 60  52 56 57  16 17 61  52 62 57  62 57 63  64 62 65  44 34 66  67 53 54  43 38 57  49 68 51  59 56 69  70 53 55  40 48 71  41 48 72  52 56 55  64 73 65  22 19 74  18 21 75  64 62 76  20 77 78  17 61 79  45 46 80  16 61 81  56 55 69  45 47 82  34 66 83  35 40 71  41 36 72  84 85 81  52 62 54  86 74 78  49 87 88  67 68 51  89 75 79  38 57 58  43 57 63  90 71 83  64 72 73  91 46 80  19 20 78  17 18 79  15 16 81  34 35 83  92 47 82  36 37 73  45 93 94  86 77 95  45 93 96  92 97 98  45 94 80  19 74 78  84 61 99  18 75 79  45 96 82  89 61 99  90 71 87  37 42 65  15 85 81  64 72 50  86 74 94  89 75 96  38 39 58  35 71 83  36 72 73  22 74 100  21 75 100  42 43 63  84 61 81  86 80 95  84 98 99  86 77 78  89 61 79  89 82 99  49 48 87  49 48 50  90 66 83  37 73 65  48 71 87  48 72 50  39 60 58  42 65 63  92 98 99  91 80 95  59 101 69  21 22 100  92 82 99  64 50 51  86 94 80  93 74 94  93 75 96  89 96 82  70 101 69  93 74 100  93 75 100  56 60 58  62 65 63  90 87 88  62 54 76  64 76 51  70 55 69  67 76 51  67 54 76  </DataArray>
<DataArray  type="UInt32"  Name="offsets"  format="ascii">3 6 9 12 15 18 21 24 27 30 33 36 39 42 45 48 51 54 57 60 63 66 69 72 75 78 81 84 87 90 93 96 99 102 105 108 111 114 117 120 123 126 129 132 135 138 141 144 147 150 153 156 159 162 165 168 171 174 177 180 183 186 189 192 195 198 201 204 207 210 213 216 219 222 225 228 231 234 237 240 243 246 249 252 255 258 261 264 267 270 273 276 279 282 285 288 291 294 297 300 303 306 309 312 315 318 321 324 327 330 333 336 339 342 345 348 351 354 357 360 363 366 369 372 375 378 381 384 387 390 393 396 399 402 405 408 411 414 417 420 423 426 429 432 435 438 441 444 447 450 453 456 459 462 465 468 471 474 477 480 483 486 489 492 495 498 501 504 507 510 513 </DataArray>
<DataArray  type="UInt8"  Name="types"  format="ascii">5 5 5 5 5 5 5 5 5 5 5 5 5 5 5 5 5 5 5 5 5 5 5 5 5 5 5 5 5 5 5 5 5 5 5 5 5 5 5 5 5 5 5 5 5 5 5 5 5 5 5 5 5 5 5 5 5 5 5 5 5 5 5 5 5 5 5 5 5 5 5 5 5 5 5 5 5 5 5 5 5 5 5 5 5 5 5 5 5 5 5 5 5 5 5 5 5 5 5 5 5 5 5 5 5 5 5 5 5 5 5 5 5 5 5 5 5 5 5 5 5 5 5 5 5 5 5 5 5 5 5 5 5 5 5 5 5 5 5 5 5 5 5 5 5 5 5 5 5 5 5 5 5 5 5 5 5 5 5 5 5 5 5 5 5 5 5 5 5 5 5 </DataArray>
</Cells>
<PointData  Vectors="f_43-0"> 
<DataArray  type="Float64"  Name="f_43-0"  NumberOfComponents="3" format="ascii">-9.1761591430849320e-06 -2.5626879795075620e-05 0.0000000000000000e+00  -8.5557533092854715e-06 -2.3827598723660467e-05 0.0000000000000000e+00  -7.8494447841623402e-06 -2.6380133149716298e-05 0.0000000000000000e+00  -1.1128709409535302e-05 -2.7025142552710633e-05 0.0000000000000000e+00  -1.0400343268538620e-05 -2.5306302344436306e-05 0.0000000000000000e+00  -9.7380614731825647e-06 -2.7777757927859009e-05 0.0000000000000000e+00  -1.3261003512573561e-05 -2.8342434077371328e-05 0.0000000000000000e+00  -1.2427122621935693e-05 -2.6696164290698799e-05 0.0000000000000000e+00  -1.1802110833458562e-05 -2.9086250578969038e-05 0.0000000000000000e+00  -1.5573877057949384e-05 -2.9595828970499789e-05 0.0000000000000000e+00  -1.4637138430105744e-05 -2.8013677154182595e-05 0.0000000000000000e+00  -1.4041968425170771e-05 -3.0322015275289201e-05 0.0000000000000000e+00  -1.8068498651815508e-05 -3.0802452916384980e-05 0.0000000000000000e+00  -1.7031441053901128e-05 -2.9276145530851397e-05 0.0000000000000000e+00  -1.6458410106269908e-05 -3.1502187435948975e-05 0.0000000000000000e+00  -1.8186946167292761e-05 -2.7340245511262872e-05 0.0000000000000000e+00  -1.6952972157008665e-05 -2.6676761239718396e-05 0.0000000000000000e+00  -1.5767200871459321e-05 -2.6002750484457371e-05 0.0000000000000000e+00  -1.4629538421610905e-05 -2.5316292835317016e-05 0.0000000000000000e+00  -1.1503722503818995e-05 -2.3159883366462826e-05 0.0000000000000000e+00  -1.0556888539164475e-05 -2.2401694288480380e-05 0.0000000000000000e+00  -1.3539838489993784e-05 -2.4615073931493266e-05 0.0000000000000000e+00  -1.2497943785802986e-05 -2.3897027768993636e-05 0.0000000000000000e+00  -8.6066533206456502e-06 -2.7672636130956517e-05 0.0000000000000000e+00  -1.0592480358468854e-05 -2.9005205840711017e-05 0.0000000000000000e+00  -1.2752150348194048e-05 -3.0256573926749888e-05 0.0000000000000000e+00  -1.5086138550358636e-05 -3.1443716238598646e-05 0.0000000000000000e+00  -1.7595640404021151e-05 -3.2583492139447822e-05 0.0000000000000000e+00  -1.9047679379870394e-05 -3.2644691124842768e-05 0.0000000000000000e+00  -1.8510305763357125e-05 -2.9018318327826845e-05 0.0000000000000000e+00  -1.6030859882705879e-05 -2.7743351341080241e-05 0.0000000000000000e+00  -9.7153448607438885e-06 -2.3572017281955198e-05 0.0000000000000000e+00  -1.1634523141931637e-05 -2.5037370387935818e-05 0.0000000000000000e+00  -1.3739297069783884e-05 -2.6422107963697466e-05 0.0000000000000000e+00  -8.6445414941713784e-06 -2.9541058347928371e-05 0.0000000000000000e+00  -9.6501719317741825e-06 -3.0182853240286849e-05 0.0000000000000000e+00  -1.2920673299214979e-05 -3.1988068951290504e-05 0.0000000000000000e+00  -1.4095520341300866e-05 -3.2556923258234382e-05 0.0000000000000000e+00  -1.7876348540907083e-05 -3.4193542452564295e-05 0.0000000000000000e+00  -1.9223272577832950e-05 -3.4722404364499801e-05 0.0000000000000000e+00  -1.0697911228342628e-05 -3.0803245316151856e-05 0.0000000000000000e+00  -1.1788072190426949e-05 -3.1404145099611830e-05 0.0000000000000000e+00  -1.5312905857018643e-05 -3.3112757651401277e-05 0.0000000000000000e+00  -1.6573050740189681e-05 -3.3657725293846256e-05 0.0000000000000000e+00  -7.6813994358361948e-06 -2.8876237083453316e-05 0.0000000000000000e+00  1.7880567628355663e-02 6.4913380478499787e-05 0.0000000000000000e+00  1.8208578604053460e-02 1.0475061738742563e-04 0.0000000000000000e+00  1.8292054616501970e-02 1.4062214939506028e-04 0.0000000000000000e+00  1.3850043595098421e-02 -5.5072024403185741e-05 0.0000000000000000e+00  1.7733814246673973e-02 -1.1082884652887901e-04 0.0000000000000000e+00  1.6585356570777549e-02 -9.4038741586338029e-05 0.0000000000000000e+00  1.7853265055820140e-02 -1.3658288346084994e-04 0.0000000000000000e+00  1.7563370323023901e-02 -1.7607504696888932e-04 0.0000000000000000e+00  1.8452904211781512e-02 -3.0858045717408204e-04 0.0000000000000000e+00  1.7885973612560280e-02 -1.7407485987242877e-04 0.0000000000000000e+00  1.8284491099508325e-02 -2.9613588615918314e-04 0.0000000000000000e+00  1.6506205007163856e-02 -1.6790804332454039e-04 0.0000000000000000e+00  1.3119450037553377e-02 -7.6235803255879920e-05 0.0000000000000000e+00  1.0733566664189091e-02 -7.3328336865618110e-05 0.0000000000000000e+00  1.7375857551096698e-02 -2.8902154100095739e-04 0.0000000000000000e+00  1.1884344390213306e-02 -8.8870837058439037e-05 0.0000000000000000e+00  1.3468597579015449e-02 7.1938653717888991e-06 0.0000000000000000e+00  1.5848810136557308e-02 -9.9464502114032165e-05 0.0000000000000000e+00  1.0283190793643539e-02 -4.0037092875369311e-05 0.0000000000000000e+00  1.5958790629340917e-02 -8.5608846230507987e-05 0.0000000000000000e+00  1.1007273559074087e-02 -4.9559632977027676e-05 0.0000000000000000e+00  1.3076965713821788e-02 -4.4193371132176696e-05 0.0000000000000000e+00  1.8253865585054499e-02 -1.9432185484090164e-04 0.0000000000000000e+00  1.8255367834013783e-02 -1.7656854973198147e-04 0.0000000000000000e+00  1.8390265896674435e-02 -3.5866697331967036e-04 0.0000000000000000e+00  1.8617515109683062e-02 -4.5873446854356482e-04 0.0000000000000000e+00  1.1967451889325522e-02 -3.4860226421512522e-05 0.0000000000000000e+00  1.2035255131631558e-02 -5.7055973724887323e-05 0.0000000000000000e+00  1.0368803870300933e-02 -5.1913189742951700e-05 0.0000000000000000e+00  1.2171750688392406e-02 -8.2625560843467336e-06 0.0000000000000000e+00  1.2228663726546858e-02 -8.3395291947998322e-06 0.0000000000000000e+00  1.7578921494837807e-02 -1.3768717593812160e-04 0.0000000000000000e+00  1.3272678924793002e-02 -6.4864749998106776e-06 0.0000000000000000e+00  1.1024500949365280e-02 -4.5233819004392448e-06 0.0000000000000000e+00  1.1129419313273646e-02 -1.8688261781263595e-05 0.0000000000000000e+00  1.7858566249112265e-02 5.5333131026185731e-05 0.0000000000000000e+00  1.1527714450357671e-02 4.3446743700756943e-06 0.0000000000000000e+00  1.7989491232717432e-02 8.6929547100761647e-05 0.0000000000000000e+00  1.0658508113374527e-02 -4.3710094655077531e-05 0.0000000000000000e+00  1.6479962230982356e-02 6.2640000117086025e-05 0.0000000000000000e+00  1.2511009616711557e-02 1.1531182080327851e-05 0.0000000000000000e+00  1.6396369757978670e-02 2.0478798004228089e-05 0.0000000000000000e+00  1.6476280762671994e-02 -6.6322217625418818e-05 0.0000000000000000e+00  1.7690260533366343e-02 -9.7048765729485309e-05 0.0000000000000000e+00  1.6550627468282744e-02 3.3600716281739850e-05 0.0000000000000000e+00  1.5830355484356018e-02 -6.3471178686497228e-05 0.0000000000000000e+00  1.8066482362748371e-02 6.7941184297363875e-05 0.0000000000000000e+00  1.8297974596916549e-02 1.5179808342832452e-04 0.0000000000000000e+00  1.5341726978979188e-02 1.0444992302561501e-05 0.0000000000000000e+00  1.6828446858201757e-02 2.1276347111838016e-05 0.0000000000000000e+00  1.7333212755722482e-02 3.1413632606002019e-05 0.0000000000000000e+00  1.6898822083267401e-02 4.1405998475109675e-05 0.0000000000000000e+00  1.8466568227645787e-02 2.6862537703361942e-04 0.0000000000000000e+00  1.8140676686316717e-02 1.5267354830352358e-04 0.0000000000000000e+00  1.7578523515888803e-02 8.0955806321081626e-05 0.0000000000000000e+00  9.6628885036704627e-03 -1.6185523331041231e-05 0.0000000000000000e+00  1.8752322476731430e-02 -5.9474834036912110e-04 0.0000000000000000e+00  </DataArray> 
</PointData> 
</Piece>
</UnstructuredGrid>
</VTKFile>