<?xml version="1.0"?>
<VTKFile type="UnstructuredGrid"  version="0.1"  >
<UnstructuredGrid>
<Piece  NumberOfPoints="102" NumberOfCells="171">
<Points>
<DataArray  type="Float64"  NumberOfComponents="3"  format="ascii">0.476773013087985 0.1999999999998713 0  0.4693047108508938 0.1970915826863783 0  0.4693047108503577 0.2040749161535231 0  0.4917096175621762 0.1999999999998808 0  0.4842413153250809 0.1970915826863873 0  0.4842413153245942 0.2040749161535287 0  0.5066462220363641 0.199999999999908 0  0.4991779197992749 0.1970915826863902 0  0.4991779197988497 0.2040749161535382 0  0.5215828265105155 0.1999999999999228 0  0.5141145242734466 0.1970915826863843 0  0.5141145242731028 0.2040749161535395 0  0.5365194309847112 0.1999999999999436 0  0.5290511287476175 0.1970915826863981 0  0.5290511287473298 0.2040749161535501 0  0.5327852798661811 0.19 0  0.5253169776290537 0.19 0  0.5178486753919799 0.19 0  0.5103803731549078 0.19 0  0.4879754664436223 0.19 0  0.4805071642065402 0.19 0  0.502912070917822 0.19 0  0.4954437686807294 0.19 0  0.4767730130872753 0.2056971942287455 0  0.4917096175615203 0.2056971942287492 0  0.5066462220358396 0.2056971942287649 0  0.5215828265100828 0.2056971942287677 0  0.5365194309843644 0.2056971942287865 0  0.5439623148931173 0.2040856076781014 0  0.5365194309847112 0.1943028057711659 0  0.5215828265105155 0.1943028057711514 0  0.4767730130879849 0.1943028057711153 0  0.4917096175621761 0.1943028057711214 0  0.5066462220363641 0.1943028057711422 0  0.480507164205851 0.21 0  0.4879754664429498 0.21 0  0.5103803731544119 0.21 0  0.5178486753915261 0.21 0  0.5402535821029386 0.21 0  0.54772188434007 0.21 0  0.4954437686800938 0.21 0  0.502912070917267 0.21 0  0.5253169776286404 0.21 0  0.5327852798657868 0.21 0  0.4730388619686996 0.21 0  0.4991779197992711 0.167693385507626 0  0.4900906149793102 0.1565876018036352 0  0.5082652246192162 0.1565876018036352 0  0.499237761463083 0.2192785032300353 0  0.4993542269391089 0.2308107468212473 0  0.5064903940750056 0.2246838314870058 0  0.5123638022628456 0.2310955071885417 0  0.536567636007916 0.2275987754591341 0  0.5347760817351684 0.2414500964404198 0  0.5283542774025207 0.2302880001042248 0  0.5455709551586724 0.2324144452751203 0  0.546982877175164 0.2233942294772845 0  0.5365194309843644 0.2180863504285254 0  0.5444469726554123 0.2157339702670886 0  0.5588244563271773 0.225349035787779 0  0.5519051872593019 0.2166420053265535 0  0.5216178319364539 0.1813492122870838 0  0.5265047000024197 0.2223941974774756 0  0.5286910337265995 0.2154702409242758 0  0.5150278681324471 0.2228450308306156 0  0.5214285426002536 0.2161011329323836 0  0.4767730130872752 0.2184019876485795 0  0.5209814004512184 0.2362962593649592 0  0.5084573036363184 0.2395108277223441 0  0.553378981997341 0.2322691570724318 0  0.5504647692515866 0.2417078359721865 0  0.4910031975930484 0.2171006717137592 0  0.5075668509025225 0.2171084086245455 0  0.5143590539697885 0.2155988592715468 0  0.4917096175621761 0.1826726487251064 0  0.5066462220363641 0.1826726487251085 0  0.5208355992062484 0.2285465546466679 0  0.4767380076620556 0.1813492122870721 0  0.4842366479349569 0.1837683957184343 0  0.5141191916635692 0.1837683957184422 0  0.4867628426197099 0.1672556638427207 0  0.5290511287476175 0.1834818376483974 0  0.5115929969788211 0.1672556638427288 0  0.4841984187204001 0.2159109988582109 0  0.5294745265341012 0.1761054820336709 0  0.5366299525895074 0.1825690825227473 0  0.4842413153250809 0.1755365127551258 0  0.4923756029794709 0.2245693836696246 0  0.4869999746943883 0.2308048359320609 0  0.5141145242734466 0.1755365127551412 0  0.4846260107628763 0.2228898464509046 0  0.4767730130879849 0.1622083790703084 0  0.5215828265105156 0.1622083790703317 0  0.4991779197992725 0.1783172034453956 0  0.4923389098589435 0.1741809711526818 0  0.4767269250530047 0.1713973971258736 0  0.506016929739597 0.1741809711526895 0  0.5349004284018322 0.1565876018036672 0  0.5316967135713353 0.1673421178078786 0  0.5216289307659581 0.1713997813123399 0  0.4991779197992735 0.1849089375109228 0  0.5631143150331265 0.2366473934541688 0  </DataArray>
</Points>
<Cells>
<DataArray  type="UInt32"  Name="connectivity"  format="ascii">0 1 2  3 4 5  6 7 8  9 10 11  12 13 14  9 13 14  6 10 11  3 7 8  0 4 5  15 16 13  17 18 10  19 20 4  21 22 7  0 2 23  3 5 24  6 8 25  9 11 26  12 14 27  12 28 27  9 14 26  6 11 25  3 8 24  0 5 23  15 13 29  16 13 30  9 13 30  12 13 29  0 4 31  20 4 31  0 1 31  19 4 32  18 10 33  21 7 33  22 7 32  17 10 30  6 7 33  6 10 33  3 4 32  3 7 32  9 10 30  34 35 5  36 37 11  38 39 28  40 41 8  42 43 14  34 5 23  44 2 23  35 5 24  40 8 24  36 11 25  41 8 25  42 14 26  43 14 27  38 28 27  37 11 26  44 34 23  35 40 24  41 36 25  43 38 27  37 42 26  22 19 32  18 21 33  16 17 30  45 46 47  40 41 48  49 50 51  52 53 54  52 53 55  56 57 58  59 56 60  52 56 57  16 17 61  52 62 57  62 57 63  64 62 65  44 34 66  67 53 54  43 38 57  49 68 51  59 56 69  70 53 55  40 48 71  41 48 72  52 56 55  64 73 65  22 19 74  18 21 75  64 62 76  20 77 78  17 61 79  45 46 80  16 61 81  56 55 69  45 47 82  34 66 83  35 40 71  41 36 72  84 85 81  52 62 54  86 74 78  49 87 88  67 68 51  89 75 79  38 57 58  43 57 63  90 71 83  64 72 73  91 46 80  19 20 78  17 18 79  15 16 81  34 35 83  92 47 82  36 37 73  45 93 94  86 77 95  45 93 96  92 97 98  45 94 80  19 74 78  84 61 99  18 75 79  45 96 82  89 61 99  90 71 87  37 42 65  15 85 81  64 72 50  86 74 94  89 75 96  38 39 58  35 71 83  36 72 73  22 74 100  21 75 100  42 43 63  84 61 81  86 80 95  84 98 99  86 77 78  89 61 79  89 82 99  49 48 87  49 48 50  90 66 83  37 73 65  48 71 87  48 72 50  39 60 58  42 65 63  92 98 99  91 80 95  59 101 69  21 22 100  92 82 99  64 50 51  86 94 80  93 74 94  93 75 96  89 96 82  70 101 69  93 74 100  93 75 100  56 60 58  62 65 63  90 87 88  62 54 76  64 76 51  70 55 69  67 76 51  67 54 76  </DataArray>
<DataArray  type="UInt32"  Name="offsets"  format="ascii">3 6 9 12 15 18 21 24 27 30 33 36 39 42 45 48 51 54 57 60 63 66 69 72 75 78 81 84 87 90 93 96 99 102 105 108 111 114 117 120 123 126 129 132 135 138 141 144 147 150 153 156 159 162 165 168 171 174 177 180 183 186 189 192 195 198 201 204 207 210 213 216 219 222 225 228 231 234 237 240 243 246 249 252 255 258 261 264 267 270 273 276 279 282 285 288 291 294 297 300 303 306 309 312 315 318 321 324 327 330 333 336 339 342 345 348 351 354 357 360 363 366 369 372 375 378 381 384 387 390 393 396 399 402 405 408 411 414 417 420 423 426 429 432 435 438 441 444 447 450 453 456 459 462 465 468 471 474 477 480 483 486 489 492 495 498 501 504 507 510 513 </DataArray>
<DataArray  type="UInt8"  Name="types"  format="ascii">5 5 5 5 5 5 5 5 5 5 5 5 5 5 5 5 5 5 5 5 5 5 5 5 5 5 5 5 5 5 5 5 5 5 5 5 5 5 5 5 5 5 5 5 5 5 5 5 5 5 5 5 5 5 5 5 5 5 5 5 5 5 5 5 5 5 5 5 5 5 5 5 5 5 5 5 5 5 5 5 5 5 5 5 5 5 5 5 5 5 5 5 5 5 5 5 5 5 5 5 5 5 5 5 5 5 5 5 5 5 5 5 5 5 5 5 5 5 5 5 5 5 5 5 5 5 5 5 5 5 5 5 5 5 5 5 5 5 5 5 5 5 5 5 5 5 5 5 5 5 5 5 5 5 5 5 5 5 5 5 5 5 5 5 5 5 5 5 5 5 5 </DataArray>
</Cells>
<PointData  Vectors="f_43-0"> 
<DataArray  type="Float64"  Name="f_43-0"  NumberOfComponents="3" format="ascii">-3.4572385854660716e-05 3.0585286846031843e-04 0.0000000000000000e+00  -4.3424599581603452e-05 3.2703316120641932e-04 0.0000000000000000e+00  -2.5166207505930711e-05 3.2593985876546409e-04 0.0000000000000000e+00  -3.2144795396411017e-05 2.6063315389270584e-04 0.0000000000000000e+00  -4.1936564633614562e-05 2.8413211260914535e-04 0.0000000000000000e+00  -2.1263883934572550e-05 2.8308014580295343e-04 0.0000000000000000e+00  -2.9909173573601175e-05 2.1186266463928924e-04 0.0000000000000000e+00  -4.0320907390374705e-05 2.3695874088001235e-04 0.0000000000000000e+00  -1.7901786873262122e-05 2.3598994303035591e-04 0.0000000000000000e+00  -2.7927163634971074e-05 1.6073613463466098e-04 0.0000000000000000e+00  -3.8701507396282936e-05 1.8685202760008502e-04 0.0000000000000000e+00  -1.5089996617665899e-05 1.8599186187269066e-04 0.0000000000000000e+00  -2.6236930407455335e-05 1.0816560879335421e-04 0.0000000000000000e+00  -3.7178064776744429e-05 1.3486991920524913e-04 0.0000000000000000e+00  -1.2805294293293936e-05 1.3413212152775232e-04 0.0000000000000000e+00  -6.1659422968378543e-05 1.2223102965183588e-04 0.0000000000000000e+00  -6.2103766468807664e-05 1.4855926881108332e-04 0.0000000000000000e+00  -6.2505837546611220e-05 1.7456792489533142e-04 0.0000000000000000e+00  -6.2833899881626734e-05 2.0014999746527284e-04 0.0000000000000000e+00  -6.3126401721581569e-05 2.7312891593197754e-04 0.0000000000000000e+00  -6.2890113657362794e-05 2.9568591991158762e-04 0.0000000000000000e+00  -6.3068280532599849e-05 2.2519991131127689e-04 0.0000000000000000e+00  -6.3173058455145306e-05 2.4957234511958063e-04 0.0000000000000000e+00  -1.8580712076593001e-05 3.0477231787949966e-04 0.0000000000000000e+00  -1.4463295377805804e-05 2.5966041321402668e-04 0.0000000000000000e+00  -1.1040277014479065e-05 2.1101538246628125e-04 0.0000000000000000e+00  -8.2741793709003018e-06 1.6001977447636700e-04 0.0000000000000000e+00  -6.1025751588726613e-06 1.0757815383535843e-04 0.0000000000000000e+00  -1.0972644923622318e-05 8.1271765145019096e-05 0.0000000000000000e+00  -4.6287324679068644e-05 1.0865844098313438e-04 0.0000000000000000e+00  -4.7503439550569691e-05 1.6129275010594649e-04 0.0000000000000000e+00  -5.0525087964374596e-05 3.0643110364775452e-04 0.0000000000000000e+00  -4.9770723213985497e-05 2.6124174924849262e-04 0.0000000000000000e+00  -4.8710376901673458e-05 2.1246065758502526e-04 0.0000000000000000e+00  -4.8846352333918205e-06 2.9279120843014937e-04 0.0000000000000000e+00  -2.1937264923779230e-06 2.7030000198054578e-04 0.0000000000000000e+00  4.2702987539886336e-06 1.9768148930645116e-04 0.0000000000000000e+00  5.9386105874181291e-06 1.7224911269436409e-04 0.0000000000000000e+00  9.7257309741860515e-06 9.3847543724643351e-05 0.0000000000000000e+00  1.0642316376682113e-05 6.7280015314651070e-05 0.0000000000000000e+00  2.2008630099359194e-07 2.4684508592039465e-04 0.0000000000000000e+00  2.3707044235523409e-06 2.2259021129977647e-04 0.0000000000000000e+00  7.3909745734274315e-06 1.4640467667132389e-04 0.0000000000000000e+00  8.6482889780565304e-06 1.2024426871677170e-04 0.0000000000000000e+00  -7.8596833582265731e-06 3.1413994432619456e-04 0.0000000000000000e+00  8.5328736245715919e-01 1.9316149400090230e-02 0.0000000000000000e+00  1.0114130269487334e+00 3.9686320437497404e-02 0.0000000000000000e+00  1.0366119512819563e+00 3.2441903157905301e-02 0.0000000000000000e+00  4.7623130106541217e-01 -4.2215583896139464e-03 0.0000000000000000e+00  8.2122530462440624e-01 -1.8636369953706433e-02 0.0000000000000000e+00  6.7383144050297283e-01 -9.3395609730552893e-03 0.0000000000000000e+00  8.4596586444001165e-01 -1.6832352409870605e-02 0.0000000000000000e+00  7.9113615310384988e-01 -1.2381278240088127e-02 0.0000000000000000e+00  1.0450070114393990e+00 -2.9537520773224177e-02 0.0000000000000000e+00  8.4837623693034669e-01 -1.5084349438725216e-02 0.0000000000000000e+00  9.1489617123379974e-01 -1.9423143534613319e-02 0.0000000000000000e+00  6.7313205914761942e-01 -9.0091893905930118e-03 0.0000000000000000e+00  4.5202440845976205e-01 -3.2418776556576928e-03 0.0000000000000000e+00  3.4289992583563822e-01 -1.9942854822461603e-03 0.0000000000000000e+00  7.5144323890306608e-01 -1.4027727830081745e-02 0.0000000000000000e+00  3.9436855587341341e-01 -3.0358819872942171e-03 0.0000000000000000e+00  4.6508384420377424e-01 3.1485688987713031e-03 0.0000000000000000e+00  6.1828033610305821e-01 -6.4063185213936932e-03 0.0000000000000000e+00  3.2082172485033494e-01 -1.3619611379920586e-03 0.0000000000000000e+00  6.2335658553628825e-01 -6.8594887432648841e-03 0.0000000000000000e+00  3.4889822518052582e-01 -1.6243103417912428e-03 0.0000000000000000e+00  4.1865896609860381e-01 -4.8883916067553818e-03 0.0000000000000000e+00  9.5477157523858180e-01 -2.3066259988662279e-02 0.0000000000000000e+00  9.8518181929657067e-01 -2.9634140921262247e-02 0.0000000000000000e+00  9.2196325478250862e-01 -2.1212457045063020e-02 0.0000000000000000e+00  1.0672784156168342e+00 -3.2272439728099303e-02 0.0000000000000000e+00  3.7701888483625168e-01 -2.7177379258663870e-03 0.0000000000000000e+00  3.8889937465180224e-01 -2.2907262637733043e-03 0.0000000000000000e+00  3.2040991739661151e-01 -1.3846146141789910e-03 0.0000000000000000e+00  3.8748288660664620e-01 2.9995304741739256e-03 0.0000000000000000e+00  3.9731716804279821e-01 2.4982119351025997e-03 0.0000000000000000e+00  7.9757964194573494e-01 -1.3008574563771323e-02 0.0000000000000000e+00  4.2976611148189636e-01 5.1811294739796494e-03 0.0000000000000000e+00  3.3292385225147175e-01 2.6083546188893970e-03 0.0000000000000000e+00  3.5018610279942802e-01 1.7717671600440987e-03 0.0000000000000000e+00  8.4229434014680094e-01 2.3737101188563620e-02 0.0000000000000000e+00  3.7161653802622691e-01 1.9696914123241197e-03 0.0000000000000000e+00  8.7898475638739515e-01 1.7628325858890022e-02 0.0000000000000000e+00  3.1780077366689613e-01 -2.1137079547147524e-03 0.0000000000000000e+00  6.7044109636413007e-01 7.2974623214935516e-03 0.0000000000000000e+00  4.1946741049435932e-01 2.5918060435200056e-03 0.0000000000000000e+00  6.3980533342287660e-01 1.1437880448984203e-02 0.0000000000000000e+00  6.5298182920538572e-01 -1.0723238455784205e-02 0.0000000000000000e+00  8.0117022435860397e-01 -2.1905354721838147e-02 0.0000000000000000e+00  6.7434725515546812e-01 7.8824592289027939e-03 0.0000000000000000e+00  5.9043092938915553e-01 -9.7120210090717741e-03 0.0000000000000000e+00  9.1082950487284942e-01 3.7303311971553239e-02 0.0000000000000000e+00  9.7924716614331131e-01 2.2872126043101751e-02 0.0000000000000000e+00  5.6702741965179559e-01 6.2581867501698566e-03 0.0000000000000000e+00  6.8986464894824540e-01 1.1683626726509359e-02 0.0000000000000000e+00  7.3664274661485740e-01 1.9966881450088264e-02 0.0000000000000000e+00  7.0646798101047192e-01 9.9446638354450424e-03 0.0000000000000000e+00  1.0684757856434137e+00 2.9057561284341536e-02 0.0000000000000000e+00  9.0184789969371415e-01 1.6472571667322924e-02 0.0000000000000000e+00  7.9864370771362148e-01 1.1917882819279550e-02 0.0000000000000000e+00  2.8693344374878205e-01 1.4761349575615091e-03 0.0000000000000000e+00  1.0139667049524375e+00 -3.1166982712437528e-02 0.0000000000000000e+00  </DataArray> 
</PointData> 
</Piece>
</UnstructuredGrid>
</VTKFile>