<?xml version="1.0"?>
<VTKFile type="UnstructuredGrid"  version="0.1"  >
<UnstructuredGrid>
<Piece  NumberOfPoints="102" NumberOfCells="171">
<Points>
<DataArray  type="Float64"  NumberOfComponents="3"  format="ascii">0.476773013087985 0.1999999999998713 0  0.4693047108508938 0.1970915826863783 0  0.4693047108503577 0.2040749161535231 0  0.4917096175621762 0.1999999999998808 0  0.4842413153250809 0.1970915826863873 0  0.4842413153245942 0.2040749161535287 0  0.5066462220363641 0.199999999999908 0  0.4991779197992749 0.1970915826863902 0  0.4991779197988497 0.2040749161535382 0  0.5215828265105155 0.1999999999999228 0  0.5141145242734466 0.1970915826863843 0  0.5141145242731028 0.2040749161535395 0  0.5365194309847112 0.1999999999999436 0  0.5290511287476175 0.1970915826863981 0  0.5290511287473298 0.2040749161535501 0  0.5327852798661811 0.19 0  0.5253169776290537 0.19 0  0.5178486753919799 0.19 0  0.5103803731549078 0.19 0  0.4879754664436223 0.19 0  0.4805071642065402 0.19 0  0.502912070917822 0.19 0  0.4954437686807294 0.19 0  0.4767730130872753 0.2056971942287455 0  0.4917096175615203 0.2056971942287492 0  0.5066462220358396 0.2056971942287649 0  0.5215828265100828 0.2056971942287677 0  0.5365194309843644 0.2056971942287865 0  0.5439623148931173 0.2040856076781014 0  0.5365194309847112 0.1943028057711659 0  0.5215828265105155 0.1943028057711514 0  0.4767730130879849 0.1943028057711153 0  0.4917096175621761 0.1943028057711214 0  0.5066462220363641 0.1943028057711422 0  0.480507164205851 0.21 0  0.4879754664429498 0.21 0  0.5103803731544119 0.21 0  0.5178486753915261 0.21 0  0.5402535821029386 0.21 0  0.54772188434007 0.21 0  0.4954437686800938 0.21 0  0.502912070917267 0.21 0  0.5253169776286404 0.21 0  0.5327852798657868 0.21 0  0.4730388619686996 0.21 0  0.4991779197992711 0.167693385507626 0  0.4900906149793102 0.1565876018036352 0  0.5082652246192162 0.1565876018036352 0  0.499237761463083 0.2192785032300353 0  0.4993542269391089 0.2308107468212473 0  0.5064903940750056 0.2246838314870058 0  0.5123638022628456 0.2310955071885417 0  0.536567636007916 0.2275987754591341 0  0.5347760817351684 0.2414500964404198 0  0.5283542774025207 0.2302880001042248 0  0.5455709551586724 0.2324144452751203 0  0.546982877175164 0.2233942294772845 0  0.5365194309843644 0.2180863504285254 0  0.5444469726554123 0.2157339702670886 0  0.5588244563271773 0.225349035787779 0  0.5519051872593019 0.2166420053265535 0  0.5216178319364539 0.1813492122870838 0  0.5265047000024197 0.2223941974774756 0  0.5286910337265995 0.2154702409242758 0  0.5150278681324471 0.2228450308306156 0  0.5214285426002536 0.2161011329323836 0  0.4767730130872752 0.2184019876485795 0  0.5209814004512184 0.2362962593649592 0  0.5084573036363184 0.2395108277223441 0  0.553378981997341 0.2322691570724318 0  0.5504647692515866 0.2417078359721865 0  0.4910031975930484 0.2171006717137592 0  0.5075668509025225 0.2171084086245455 0  0.5143590539697885 0.2155988592715468 0  0.4917096175621761 0.1826726487251064 0  0.5066462220363641 0.1826726487251085 0  0.5208355992062484 0.2285465546466679 0  0.4767380076620556 0.1813492122870721 0  0.4842366479349569 0.1837683957184343 0  0.5141191916635692 0.1837683957184422 0  0.4867628426197099 0.1672556638427207 0  0.5290511287476175 0.1834818376483974 0  0.5115929969788211 0.1672556638427288 0  0.4841984187204001 0.2159109988582109 0  0.5294745265341012 0.1761054820336709 0  0.5366299525895074 0.1825690825227473 0  0.4842413153250809 0.1755365127551258 0  0.4923756029794709 0.2245693836696246 0  0.4869999746943883 0.2308048359320609 0  0.5141145242734466 0.1755365127551412 0  0.4846260107628763 0.2228898464509046 0  0.4767730130879849 0.1622083790703084 0  0.5215828265105156 0.1622083790703317 0  0.4991779197992725 0.1783172034453956 0  0.4923389098589435 0.1741809711526818 0  0.4767269250530047 0.1713973971258736 0  0.506016929739597 0.1741809711526895 0  0.5349004284018322 0.1565876018036672 0  0.5316967135713353 0.1673421178078786 0  0.5216289307659581 0.1713997813123399 0  0.4991779197992735 0.1849089375109228 0  0.5631143150331265 0.2366473934541688 0  </DataArray>
</Points>
<Cells>
<DataArray  type="UInt32"  Name="connectivity"  format="ascii">0 1 2  3 4 5  6 7 8  9 10 11  12 13 14  9 13 14  6 10 11  3 7 8  0 4 5  15 16 13  17 18 10  19 20 4  21 22 7  0 2 23  3 5 24  6 8 25  9 11 26  12 14 27  12 28 27  9 14 26  6 11 25  3 8 24  0 5 23  15 13 29  16 13 30  9 13 30  12 13 29  0 4 31  20 4 31  0 1 31  19 4 32  18 10 33  21 7 33  22 7 32  17 10 30  6 7 33  6 10 33  3 4 32  3 7 32  9 10 30  34 35 5  36 37 11  38 39 28  40 41 8  42 43 14  34 5 23  44 2 23  35 5 24  40 8 24  36 11 25  41 8 25  42 14 26  43 14 27  38 28 27  37 11 26  44 34 23  35 40 24  41 36 25  43 38 27  37 42 26  22 19 32  18 21 33  16 17 30  45 46 47  40 41 48  49 50 51  52 53 54  52 53 55  56 57 58  59 56 60  52 56 57  16 17 61  52 62 57  62 57 63  64 62 65  44 34 66  67 53 54  43 38 57  49 68 51  59 56 69  70 53 55  40 48 71  41 48 72  52 56 55  64 73 65  22 19 74  18 21 75  64 62 76  20 77 78  17 61 79  45 46 80  16 61 81  56 55 69  45 47 82  34 66 83  35 40 71  41 36 72  84 85 81  52 62 54  86 74 78  49 87 88  67 68 51  89 75 79  38 57 58  43 57 63  90 71 83  64 72 73  91 46 80  19 20 78  17 18 79  15 16 81  34 35 83  92 47 82  36 37 73  45 93 94  86 77 95  45 93 96  92 97 98  45 94 80  19 74 78  84 61 99  18 75 79  45 96 82  89 61 99  90 71 87  37 42 65  15 85 81  64 72 50  86 74 94  89 75 96  38 39 58  35 71 83  36 72 73  22 74 100  21 75 100  42 43 63  84 61 81  86 80 95  84 98 99  86 77 78  89 61 79  89 82 99  49 48 87  49 48 50  90 66 83  37 73 65  48 71 87  48 72 50  39 60 58  42 65 63  92 98 99  91 80 95  59 101 69  21 22 100  92 82 99  64 50 51  86 94 80  93 74 94  93 75 96  89 96 82  70 101 69  93 74 100  93 75 100  56 60 58  62 65 63  90 87 88  62 54 76  64 76 51  70 55 69  67 76 51  67 54 76  </DataArray>
<DataArray  type="UInt32"  Name="offsets"  format="ascii">3 6 9 12 15 18 21 24 27 30 33 36 39 42 45 48 51 54 57 60 63 66 69 72 75 78 81 84 87 90 93 96 99 102 105 108 111 114 117 120 123 126 129 132 135 138 141 144 147 150 153 156 159 162 165 168 171 174 177 180 183 186 189 192 195 198 201 204 207 210 213 216 219 222 225 228 231 234 237 240 243 246 249 252 255 258 261 264 267 270 273 276 279 282 285 288 291 294 297 300 303 306 309 312 315 318 321 324 327 330 333 336 339 342 345 348 351 354 357 360 363 366 369 372 375 378 381 384 387 390 393 396 399 402 405 408 411 414 417 420 423 426 429 432 435 438 441 444 447 450 453 456 459 462 465 468 471 474 477 480 483 486 489 492 495 498 501 504 507 510 513 </DataArray>
<DataArray  type="UInt8"  Name="types"  format="ascii">5 5 5 5 5 5 5 5 5 5 5 5 5 5 5 5 5 5 5 5 5 5 5 5 5 5 5 5 5 5 5 5 5 5 5 5 5 5 5 5 5 5 5 5 5 5 5 5 5 5 5 5 5 5 5 5 5 5 5 5 5 5 5 5 5 5 5 5 5 5 5 5 5 5 5 5 5 5 5 5 5 5 5 5 5 5 5 5 5 5 5 5 5 5 5 5 5 5 5 5 5 5 5 5 5 5 5 5 5 5 5 5 5 5 5 5 5 5 5 5 5 5 5 5 5 5 5 5 5 5 5 5 5 5 5 5 5 5 5 5 5 5 5 5 5 5 5 5 5 5 5 5 5 5 5 5 5 5 5 5 5 5 5 5 5 5 5 5 5 5 5 </DataArray>
</Cells>
<PointData  Vectors="f_43-0"> 
<DataArray  type="Float64"  Name="f_43-0"  NumberOfComponents="3" format="ascii">-1.7466524515237009e-04 2.1343564580585117e-03 0.0000000000000000e+00  -1.1184141614026403e-04 1.9776813969026659e-03 0.0000000000000000e+00  -2.5406573957541690e-04 1.9833697419037112e-03 0.0000000000000000e+00  -1.8045771403272533e-04 2.4466147711257966e-03 0.0000000000000000e+00  -1.1750118977400093e-04 2.2881640312934046e-03 0.0000000000000000e+00  -2.6246225221014349e-04 2.2929328692760137e-03 0.0000000000000000e+00  -1.8426099048884391e-04 2.7607000546377193e-03 0.0000000000000000e+00  -1.2177105894965350e-04 2.6020100519853150e-03 0.0000000000000000e+00  -2.6794976523768465e-04 2.6058663775985376e-03 0.0000000000000000e+00  -1.8625121170518080e-04 3.0744845167912315e-03 0.0000000000000000e+00  -1.2454419189654207e-04 2.9164526099562911e-03 0.0000000000000000e+00  -2.7092372976855440e-04 2.9194785410654421e-03 0.0000000000000000e+00  -1.8671744936806723e-04 3.3869700658025284e-03 0.0000000000000000e+00  -1.2586186245803872e-04 3.2299271495822195e-03 0.0000000000000000e+00  -2.7190427592810811e-04 3.2322578586822313e-03 0.0000000000000000e+00  2.1968778475998139e-05 3.3057116027705950e-03 0.0000000000000000e+00  2.2532168460482343e-05 3.1490545790163835e-03 0.0000000000000000e+00  2.3387200661312312e-05 2.9920067310981882e-03 0.0000000000000000e+00  2.4497496771027264e-05 2.8346482937438820e-03 0.0000000000000000e+00  2.8897031823690569e-05 2.3623402991663988e-03 0.0000000000000000e+00  3.0475419510023879e-05 2.2057727332098088e-03 0.0000000000000000e+00  2.5831440556072462e-05 2.6770977081750870e-03 0.0000000000000000e+00  2.7315066687067532e-05 2.5195780469026703e-03 0.0000000000000000e+00  -2.9215889300710949e-04 2.1388544606807829e-03 0.0000000000000000e+00  -2.9949047969712384e-04 2.4502314124453021e-03 0.0000000000000000e+00  -3.0379205926475098e-04 2.7635146508423851e-03 0.0000000000000000e+00  -3.0565184719514985e-04 3.0766278302146845e-03 0.0000000000000000e+00  -3.0571969011326875e-04 3.3885966790716490e-03 0.0000000000000000e+00  -2.7166441115400100e-04 3.5431670424671911e-03 0.0000000000000000e+00  -6.7861975349104589e-05 3.3852479359780174e-03 0.0000000000000000e+00  -6.7041133479296447e-05 3.0722799445370656e-03 0.0000000000000000e+00  -5.7453559978139108e-05 2.1304357146942612e-03 0.0000000000000000e+00  -6.1686753510752145e-05 2.4432614658123236e-03 0.0000000000000000e+00  -6.4960132925349752e-05 2.7579373121334899e-03 0.0000000000000000e+00  -3.8392680769344298e-04 2.2199073447020557e-03 0.0000000000000000e+00  -3.8810778312031431e-04 2.3752085184311697e-03 0.0000000000000000e+00  -3.9500848243193671e-04 2.8438538335434057e-03 0.0000000000000000e+00  -3.9582137348095100e-04 3.0001344076920288e-03 0.0000000000000000e+00  -3.9539361772287596e-04 3.4674599961357130e-03 0.0000000000000000e+00  -3.9464411482820352e-04 3.6226737839536510e-03 0.0000000000000000e+00  -3.9127244910756691e-04 2.5311739872950442e-03 0.0000000000000000e+00  -3.9353878324934052e-04 2.6874720716674643e-03 0.0000000000000000e+00  -3.9607808056267411e-04 3.1561947108755058e-03 0.0000000000000000e+00  -3.9590657524516743e-04 3.3119752431844643e-03 0.0000000000000000e+00  -3.7864471706652842e-04 2.0656726676358977e-03 0.0000000000000000e+00  8.7074692161152301e-01 1.6115501098641194e-01 0.0000000000000000e+00  1.4662153441686478e+00 2.5994834507845371e-01 0.0000000000000000e+00  1.5903636664432195e+00 2.4104296838885914e-01 0.0000000000000000e+00  2.0359550664374798e-01 -4.0197096065388085e-02 0.0000000000000000e+00  7.3039335808573813e-01 -1.4439962303013729e-01 0.0000000000000000e+00  4.8515669951108992e-01 -8.5502358285685323e-02 0.0000000000000000e+00  8.6484864138401407e-01 -1.4108682390112348e-01 0.0000000000000000e+00  8.8652312697150670e-01 -9.6441055877914003e-02 0.0000000000000000e+00  1.6064732037474492e+00 -1.9845924059422526e-01 0.0000000000000000e+00  9.5831262294787134e-01 -1.2318003889882620e-01 0.0000000000000000e+00  1.2035363498751193e+00 -1.2712192218063503e-01 0.0000000000000000e+00  7.5825313040882891e-01 -5.9346207998044111e-02 0.0000000000000000e+00  4.2221361020797382e-01 -2.5646186723914680e-02 0.0000000000000000e+00  3.4467375228521074e-01 -1.1607307926969852e-02 0.0000000000000000e+00  9.4217371682809836e-01 -6.8935069252520603e-02 0.0000000000000000e+00  4.3353439269828659e-01 -1.4802423499880946e-02 0.0000000000000000e+00  3.8273094480310565e-01 3.7149262418222959e-02 0.0000000000000000e+00  5.5198160336643254e-01 -5.9541048198750564e-02 0.0000000000000000e+00  2.5278071593394819e-01 -1.2240147685305180e-02 0.0000000000000000e+00  4.7745841429721925e-01 -6.7287134431053608e-02 0.0000000000000000e+00  2.4043652744196695e-01 -1.6019655462206513e-02 0.0000000000000000e+00  6.9836255577537358e-03 -3.3109432912612376e-02 0.0000000000000000e+00  1.2280480322972918e+00 -1.7792340925050382e-01 0.0000000000000000e+00  1.3172454155866351e+00 -2.1472636373069764e-01 0.0000000000000000e+00  1.2524715531671369e+00 -1.2097271029406197e-01 0.0000000000000000e+00  1.7103864836974922e+00 -1.8165368506256574e-01 0.0000000000000000e+00  7.9194490920777585e-02 -2.4891308605493635e-02 0.0000000000000000e+00  1.9156040265815261e-01 -2.3904433094943129e-02 0.0000000000000000e+00  1.8105949922178946e-01 -1.4283050675365143e-02 0.0000000000000000e+00  1.2634149347725379e-01 3.1217674576161984e-02 0.0000000000000000e+00  2.2775068359873538e-01 3.0416969650078833e-02 0.0000000000000000e+00  8.0427220673299971e-01 -1.1413377875050296e-01 0.0000000000000000e+00  5.2544301307550771e-02 4.0098299609264726e-02 0.0000000000000000e+00  4.9929208598656863e-02 2.4108331079897981e-02 0.0000000000000000e+00  2.3260337265133338e-01 2.3276040629393275e-02 0.0000000000000000e+00  7.8268631307322678e-01 1.6971025180077942e-01 0.0000000000000000e+00  3.2926655949302169e-01 2.3263517244420370e-02 0.0000000000000000e+00  1.0028317427723026e+00 1.5770584235411855e-01 0.0000000000000000e+00  1.1752961130973369e-02 -1.7225443247120577e-02 0.0000000000000000e+00  6.8730082478531362e-01 7.3925366353135347e-02 0.0000000000000000e+00  4.1711739822805405e-01 2.7074446615029658e-02 0.0000000000000000e+00  3.2317096836111503e-01 9.1445236080113387e-02 0.0000000000000000e+00  3.5007195975919558e-01 -8.6733588452171634e-02 0.0000000000000000e+00  6.1201682059169760e-01 -1.4650662026175454e-01 0.0000000000000000e+00  5.9076229817903803e-01 8.5253797693105204e-02 0.0000000000000000e+00  2.0857125224713755e-01 -7.1348477746429495e-02 0.0000000000000000e+00  1.0014604776359275e+00 2.1876993458690336e-01 0.0000000000000000e+00  1.3632170409940425e+00 1.8737007235501540e-01 0.0000000000000000e+00  3.3831228959217124e-01 6.5164398602716903e-02 0.0000000000000000e+00  4.6175602632447504e-01 1.0350870638508287e-01 0.0000000000000000e+00  4.5356783629638292e-01 1.3052692602455232e-01 0.0000000000000000e+00  5.8618136562387835e-01 9.9915029058401300e-02 0.0000000000000000e+00  1.7407252973178216e+00 2.0508099560839765e-01 0.0000000000000000e+00  1.1541087819047915e+00 1.4002287716817075e-01 0.0000000000000000e+00  8.6123892847750150e-01 1.1606400368174706e-01 0.0000000000000000e+00  1.0985894518149290e-01 1.7691765864456872e-02 0.0000000000000000e+00  1.5331626155077100e+00 -1.4187851177135583e-01 0.0000000000000000e+00  </DataArray> 
</PointData> 
</Piece>
</UnstructuredGrid>
</VTKFile>