<?xml version="1.0"?>
<VTKFile type="UnstructuredGrid"  version="0.1"  >
<UnstructuredGrid>
<Piece  NumberOfPoints="102" NumberOfCells="169">
<Points>
<DataArray  type="Float64"  NumberOfComponents="3"  format="ascii">0.5626584888143201 0.21 0  0.5633122436674589 0.1999814296467508 0  0.5571672426447437 0.2036011176410121 0  0.5626584888145268 0.19 0  0.5688286748170428 0.1961819304477386 0  0.5688286748170693 0.203818069552238 0  0.5571594006495384 0.1963685282145804 0  0.6 0.19 0  0.5925316977628897 0.19 0  0.5965740209510578 0.1927759733278094 0  0.5887803774232762 0.2001272386983733 0  0.5815926498168407 0.1966545283159175 0  0.5814408164431408 0.2041285596160068 0  0.5850633955257988 0.19 0  0.5775950932887378 0.19 0  0.5745072403740523 0.2002044435018727 0  0.5511891430099709 0.2001122610077113 0  0.5439877332217911 0.197091582686394 0  0.5439623148931173 0.2040856076781014 0  0.5365194309847112 0.1999999999999436 0  0.547721884340339 0.19 0  0.5402535821032429 0.19 0  0.5701267910514778 0.21 0  0.5701267910515998 0.19 0  0.574400031298126 0.1945411130107761 0  0.5887471324735476 0.1946190227059995 0  0.5551901865771842 0.21 0  0.5514560354586301 0.2056971942287897 0  0.5551901865773963 0.19 0  0.5743797868482748 0.2056178169806182 0  0.5511851248594936 0.1945772515115504 0  0.5365194309847112 0.1943028057711659 0  0.54772188434007 0.21 0  0.594380730180568 0.1966558399668133 0  0.5775950932886138 0.21 0  0.5327852798661811 0.19 0  0.6 0.1950000000000217 0  0.6244559818022579 0.1024805481876779 0  0.6331542554485198 0.1311064488920115 0  0.604876951083344 0.1323679928240978 0  0.5950070799606315 0.1111116928105405 0  0.5805147821309363 0.1750906865638377 0  0.5830971905392573 0.1610562557540074 0  0.5891905322413319 0.173297484523883 0  0.6385847074107548 0.1562173919888177 0  0.6641520523959832 0.1503720468916702 0  0.5857082964501902 0.1444062384003248 0  0.5690392421172527 0.1384821647678796 0  0.5733051421814971 0.1505504706653721 0  0.596265848881445 0.1672046255295837 0  0.5813292444072671 0.1834697536045245 0  0.5742993681899213 0.1835891178222343 0  0.5975491358239944 0.1534040596821995 0  0.5439877332217901 0.1676928600783786 0  0.5349004284018322 0.1565876018036672 0  0.5520209547307013 0.1576841814684212 0  0.6065875229028267 0.1922148945199381 0  0.5688911489504639 0.2221570651130901 0  0.5600714413167317 0.2168050759646857 0  0.5668496426355557 0.2152032773847839 0  0.5691769360607744 0.103623921999164 0  0.5817033662356486 0.1258684224449203 0  0.5656709189996393 0.1218263852353965 0  0.5666635607831564 0.161267807310367 0  0.5731424580414761 0.1690378585407531 0  0.5588244563271773 0.225349035787779 0  0.5519051872593019 0.2166420053265535 0  0.59743928374328 0.184845006919697 0  0.6044284617508302 0.1869248475987405 0  0.5701061294197327 0.1769562172296277 0  0.5448392573395288 0.1456266733529302 0  0.560873207311089 0.1493935172983297 0  0.6153880197825543 0.1501582873444675 0  0.605300577487017 0.1810288040931519 0  0.5966020906539898 0.1778579871513863 0  0.595034110037278 0.08371649311769892 0  0.6580228992389956 0.1177787934340178 0  0.5536582001352554 0.1343709232030346 0  0.5595716197895517 0.176498756977387 0  0.566392639933061 0.1840461062417861 0  0.6083886978654316 0.1626240187349565 0  0.5888145049962641 0.182376060046032 0  0.559009501696121 0.184247465949259 0  0.6154136810599321 0.175174545882801 0  0.6039303205755 0.1726140165641641 0  0.6229518475759098 0.1637562961874416 0  0.5366299525895074 0.1825690825227473 0  0.5514474833664602 0.1826065372792922 0  0.6341710204839701 0.1765827244303529 0  0.6209583882721262 0.1847010880111589 0  0.5653857196022115 0.1707921017691255 0  0.5316967135713353 0.1673421178078786 0  0.5562468381785084 0.1675066640297715 0  0.5439877332217904 0.1783210023422619 0  0.5371890579013414 0.1744210598886847 0  0.5509385065020694 0.1745004300116409 0  0.5294745265341012 0.1761054820336709 0  0.5740261188292279 0.2158012409855351 0  0.5439877332217911 0.1852618121745313 0  0.5666194772443838 0.07265723178580256 0  0.5932743238853959 0.04945528001359441 0  0.6112872589661165 0.1855979267337469 0  </DataArray>
</Points>
<Cells>
<DataArray  type="UInt32"  Name="connectivity"  format="ascii">0 1 2  3 1 4  0 1 5  3 1 6  7 8 9  10 11 12  13 14 11  15 11 12  16 17 18  19 17 18  20 21 17  0 22 5  23 3 4  14 11 24  13 11 25  26 0 2  15 11 24  10 11 25  16 18 27  3 28 6  15 12 29  20 17 30  21 17 31  16 17 30  19 17 31  16 2 6  1 2 6  32 18 27  15 4 5  1 4 5  8 33 9  34 12 29  16 6 30  8 13 25  14 23 24  22 34 29  32 26 27  28 20 30  21 35 31  36 33 9  28 6 30  16 2 27  26 2 27  7 36 9  8 33 25  22 5 29  23 4 24  10 33 25  15 4 24  15 5 29  37 38 39  37 40 39  41 42 43  44 38 45  46 47 48  49 42 43  41 50 51  46 39 52  53 54 55  7 36 56  57 58 59  60 61 62  63 42 64  65 58 66  60 40 61  7 67 68  41 69 51  70 55 71  72 39 52  73 67 68  65 57 58  74 73 67  37 40 75  41 42 64  76 38 45  70 77 71  78 69 79  46 47 61  60 40 75  37 76 38  72 80 52  41 81 50  78 82 79  63 42 48  72 38 39  70 54 55  44 72 38  8 13 81  83 84 80  26 0 58  47 77 71  7 8 67  44 72 85  46 39 61  21 35 86  28 20 87  83 88 89  49 74 43  41 81 43  8 81 67  41 69 64  78 69 90  53 54 91  53 55 92  78 87 82  49 42 52  13 14 50  83 80 85  7 56 68  3 28 82  46 42 48  49 74 84  13 81 50  74 73 84  26 58 66  32 26 66  0 58 59  83 88 85  63 55 92  28 87 82  53 93 94  53 93 95  96 86 94  23 3 79  74 81 67  22 34 97  78 87 95  21 86 98  20 87 98  14 23 51  60 75 99  49 84 80  53 94 91  0 22 59  83 73 84  53 95 92  49 80 52  40 39 61  14 50 51  74 81 43  3 82 79  78 92 90  100 75 99  63 92 90  23 79 51  22 97 59  63 55 71  20 21 98  47 61 62  46 42 52  93 86 94  83 73 101  93 87 95  96 94 91  93 86 98  44 88 85  93 87 98  56 68 101  78 95 92  47 62 77  83 89 101  63 48 71  57 97 59  69 79 51  72 80 85  69 64 90  47 48 71  63 64 90  73 68 101  </DataArray>
<DataArray  type="UInt32"  Name="offsets"  format="ascii">3 6 9 12 15 18 21 24 27 30 33 36 39 42 45 48 51 54 57 60 63 66 69 72 75 78 81 84 87 90 93 96 99 102 105 108 111 114 117 120 123 126 129 132 135 138 141 144 147 150 153 156 159 162 165 168 171 174 177 180 183 186 189 192 195 198 201 204 207 210 213 216 219 222 225 228 231 234 237 240 243 246 249 252 255 258 261 264 267 270 273 276 279 282 285 288 291 294 297 300 303 306 309 312 315 318 321 324 327 330 333 336 339 342 345 348 351 354 357 360 363 366 369 372 375 378 381 384 387 390 393 396 399 402 405 408 411 414 417 420 423 426 429 432 435 438 441 444 447 450 453 456 459 462 465 468 471 474 477 480 483 486 489 492 495 498 501 504 507 </DataArray>
<DataArray  type="UInt8"  Name="types"  format="ascii">5 5 5 5 5 5 5 5 5 5 5 5 5 5 5 5 5 5 5 5 5 5 5 5 5 5 5 5 5 5 5 5 5 5 5 5 5 5 5 5 5 5 5 5 5 5 5 5 5 5 5 5 5 5 5 5 5 5 5 5 5 5 5 5 5 5 5 5 5 5 5 5 5 5 5 5 5 5 5 5 5 5 5 5 5 5 5 5 5 5 5 5 5 5 5 5 5 5 5 5 5 5 5 5 5 5 5 5 5 5 5 5 5 5 5 5 5 5 5 5 5 5 5 5 5 5 5 5 5 5 5 5 5 5 5 5 5 5 5 5 5 5 5 5 5 5 5 5 5 5 5 5 5 5 5 5 5 5 5 5 5 5 5 5 5 5 5 5 5 </DataArray>
</Cells>
<PointData  Vectors="f_43-0"> 
<DataArray  type="Float64"  Name="f_43-0"  NumberOfComponents="3" format="ascii">6.4993141080034420e-05 -5.2523643246999753e-04 0.0000000000000000e+00  4.2476979574426854e-05 -5.2464463573402998e-04 0.0000000000000000e+00  5.0890644808608359e-05 -5.1171758863758395e-04 0.0000000000000000e+00  2.0419994468467880e-05 -5.2115315460524040e-04 0.0000000000000000e+00  3.3679913338709297e-05 -5.3619860540212534e-04 0.0000000000000000e+00  5.0703028136957010e-05 -5.3768958377694144e-04 0.0000000000000000e+00  3.4775422703743812e-05 -5.1016904005393943e-04 0.0000000000000000e+00  1.7364828815507015e-05 -6.0471304240166312e-04 0.0000000000000000e+00  1.7975356592774914e-05 -5.8826103837124441e-04 0.0000000000000000e+00  2.3573053389153066e-05 -5.9774494230449343e-04 0.0000000000000000e+00  4.0692567341825601e-05 -5.8145702272831474e-04 0.0000000000000000e+00  3.3707100593670466e-05 -5.6482296297762807e-04 0.0000000000000000e+00  5.0403024916863330e-05 -5.6578296326846090e-04 0.0000000000000000e+00  1.8685166328041040e-05 -5.7146518925558912e-04 0.0000000000000000e+00  1.9358251525863478e-05 -5.5467372455073657e-04 0.0000000000000000e+00  4.2210269797811612e-05 -5.4964104905372345e-04 0.0000000000000000e+00  4.3358078971730048e-05 -4.9765992570930111e-04 0.0000000000000000e+00  3.6881158356605147e-05 -4.8092592505331828e-04 0.0000000000000000e+00  5.2470071192890556e-05 -4.8247301750113176e-04 0.0000000000000000e+00  4.3506989750490082e-05 -4.6495746663550167e-04 0.0000000000000000e+00  2.1104628458494677e-05 -4.8767025183042403e-04 0.0000000000000000e+00  2.1314178221337109e-05 -4.7093742633571857e-04 0.0000000000000000e+00  6.4525234651612739e-05 -5.4177532973535218e-04 0.0000000000000000e+00  1.9938388994986936e-05 -5.3790648140722669e-04 0.0000000000000000e+00  2.9637117818968846e-05 -5.4834537862639553e-04 0.0000000000000000e+00  2.8489928021493308e-05 -5.8051755685948790e-04 0.0000000000000000e+00  6.5368473461576560e-05 -5.0869730826438029e-04 0.0000000000000000e+00  5.5837252011782408e-05 -4.9948094281182282e-04 0.0000000000000000e+00  2.0807723720494424e-05 -5.0440854234802448e-04 0.0000000000000000e+00  5.4340399612813595e-05 -5.5036921738985264e-04 0.0000000000000000e+00  3.1071031540733724e-05 -4.9643553541740435e-04 0.0000000000000000e+00  3.0870003481405838e-05 -4.6359800136468193e-04 0.0000000000000000e+00  6.5653695534282204e-05 -4.9215821649094239e-04 0.0000000000000000e+00  3.2306226766524461e-05 -5.9344565684273630e-04 0.0000000000000000e+00  6.3960923986066374e-05 -5.5831006109104369e-04 0.0000000000000000e+00  2.1438365699186083e-05 -4.5420977932964082e-04 0.0000000000000000e+00  2.7996921300492938e-05 -6.0560902055643135e-04 0.0000000000000000e+00  5.7852051072444166e-01 3.2802382954807946e-02 0.0000000000000000e+00  5.7243411878663242e-01 5.1436052342060945e-02 0.0000000000000000e+00  5.9222679708449910e-01 4.3232933831821037e-02 0.0000000000000000e+00  5.9383643643575257e-01 2.9725356477040929e-02 0.0000000000000000e+00  4.1102704217504182e-01 1.5845344209829002e-02 0.0000000000000000e+00  5.4794681890033492e-01 3.0829966745441997e-02 0.0000000000000000e+00  4.4855159123368671e-01 2.9108694950327283e-02 0.0000000000000000e+00  5.3166219171783802e-01 7.4301471697022684e-02 0.0000000000000000e+00  5.2886245601630977e-01 6.1165315923417070e-02 0.0000000000000000e+00  5.9331443501357983e-01 3.5081912967506776e-02 0.0000000000000000e+00  5.9916319667429996e-01 2.4235925661928157e-02 0.0000000000000000e+00  5.8301650909510605e-01 2.5694841862462223e-02 0.0000000000000000e+00  5.1546774327958267e-01 4.8109769975678437e-02 0.0000000000000000e+00  2.3151123698909146e-01 4.6049051998222476e-03 0.0000000000000000e+00  2.2042852089213366e-01 2.7060921123922112e-03 0.0000000000000000e+00  5.7683315282969849e-01 4.8278769216998238e-02 0.0000000000000000e+00  4.7705912210642260e-01 6.6882855332603486e-03 0.0000000000000000e+00  5.5156796647717665e-01 8.3719196323044677e-03 0.0000000000000000e+00  5.5155108745927339e-01 1.2670266883175421e-02 0.0000000000000000e+00  6.1012646570583355e-02 4.8099757681773887e-02 0.0000000000000000e+00  3.5080891571853456e-01 -8.1014201456668898e-03 0.0000000000000000e+00  2.2242551340936320e-01 -2.5784524135898275e-03 0.0000000000000000e+00  1.8102852994699953e-01 -2.2360706473146287e-03 0.0000000000000000e+00  5.9879122473965707e-01 2.0067063915391183e-02 0.0000000000000000e+00  6.0067720265082958e-01 2.9212779869972370e-02 0.0000000000000000e+00  6.0304017741069293e-01 2.1992724325521729e-02 0.0000000000000000e+00  5.3842332371348500e-01 1.7852165001375157e-02 0.0000000000000000e+00  4.8069458253696928e-01 1.6497791011497596e-02 0.0000000000000000e+00  3.9847437695641302e-01 -7.7780059858222868e-03 0.0000000000000000e+00  2.1455321886451442e-01 -2.0081604593105993e-03 0.0000000000000000e+00  2.3082756118088224e-01 3.1466676843531251e-02 0.0000000000000000e+00  1.7990912180611207e-01 7.5701100821282813e-02 0.0000000000000000e+00  3.6745311185415375e-01 7.8731933305427812e-03 0.0000000000000000e+00  5.8760177314185991e-01 1.3295325946100554e-02 0.0000000000000000e+00  5.8299217846571316e-01 1.8776392604882480e-02 0.0000000000000000e+00  5.7106480219293909e-01 6.2599595988252266e-02 0.0000000000000000e+00  3.3505503346269327e-01 7.9265352509946652e-02 0.0000000000000000e+00  3.9188008705349447e-01 4.0477834016071614e-02 0.0000000000000000e+00  5.8666904320762614e-01 2.0641804054924027e-02 0.0000000000000000e+00  5.5917012288882428e-01 4.1594117927546650e-02 0.0000000000000000e+00  6.0108302673513858e-01 1.7644184750099580e-02 0.0000000000000000e+00  3.6729670252120555e-01 5.3395838041966981e-03 0.0000000000000000e+00  2.0188288599272133e-01 1.4487707367522448e-03 0.0000000000000000e+00  5.3802568316693067e-01 6.7716246568932187e-02 0.0000000000000000e+00  2.7428981254928464e-01 1.0675888765627370e-02 0.0000000000000000e+00  1.9234109048308240e-01 9.0536609506103164e-04 0.0000000000000000e+00  4.2169611629109410e-01 9.2409361779392019e-02 0.0000000000000000e+00  4.6583536461033098e-01 6.7283180568556242e-02 0.0000000000000000e+00  5.1526842394183292e-01 8.1758720102367774e-02 0.0000000000000000e+00  2.2927608293718382e-01 6.0953886821757993e-04 0.0000000000000000e+00  2.3304777632316676e-01 1.1662301822432243e-03 0.0000000000000000e+00  4.0076384668699927e-01 8.7519616485174631e-02 0.0000000000000000e+00  2.7203768923456567e-01 8.8145218275123685e-02 0.0000000000000000e+00  4.5499512090003774e-01 1.1153794002556011e-02 0.0000000000000000e+00  4.7625188783723993e-01 4.8551859941358116e-03 0.0000000000000000e+00  4.8459397244280583e-01 9.8366767428834431e-03 0.0000000000000000e+00  3.2570003157141914e-01 2.3770349247469024e-03 0.0000000000000000e+00  3.9058150863105234e-01 3.1363119149716550e-03 0.0000000000000000e+00  3.9516939724249966e-01 4.9002792433728804e-03 0.0000000000000000e+00  3.6103768446284851e-01 2.0683509031120284e-03 0.0000000000000000e+00  2.0357994899701076e-01 -3.3107750215094329e-03 0.0000000000000000e+00  1.5842351036018801e-01 1.1406298378203029e-04 0.0000000000000000e+00  5.8891800613959921e-01 1.3159350245903458e-02 0.0000000000000000e+00  5.5468064598961297e-01 9.7146769347139471e-03 0.0000000000000000e+00  2.2978105782362146e-01 9.0534060659128737e-02 0.0000000000000000e+00  </DataArray> 
</PointData> 
</Piece>
</UnstructuredGrid>
</VTKFile>