<?xml version="1.0"?>
<VTKFile type="UnstructuredGrid"  version="0.1"  >
<UnstructuredGrid>
<Piece  NumberOfPoints="104" NumberOfCells="169">
<Points>
<DataArray  type="Float64"  NumberOfComponents="3"  format="ascii">0.1643783325218296 0.1320455275536215 0  0.1492552100538899 0.1320415135830948 0  0.1603037058708973 0.1432581839427922 0  0.228090483983057 0.1360461642521307 0  0.2156274396954392 0.1428329882811742 0  0.2231096629876289 0.1473860403476538 0  0.1340109150974826 0.1326286508362426 0  0.1230381620938855 0.1450531231009962 0  0.1371388187715824 0.1487519394947238 0  0.1502170850938848 0.1478553695050668 0  0.1843109002236991 0.1108412192449581 0  0.1663792634974669 0.1129031590983526 0  0.1730791557496665 0.09449610930120438 0  0.1497148406801674 0.1059683048239758 0  0.1319376419904144 0.1078314072630599 0  0.1422873301607691 0.09099989767432708 0  0.1292063859387973 0.160179270973018 0  0.235428184091502 0 0  0.2269089833956681 0.04173965335049001 0  0.2054867233040618 0.02496467843107029 0  0.1877417105387872 0.1515259415822739 0  0.1807733240461124 0.153844448527136 0  0.1810237202008071 0.1443964565620037 0  0.1984955210867955 0.1136055788350874 0  0.1897964898761356 0.09526420071455169 0  0.2542757755299287 0.02753888901404131 0  0.2023158100364996 0.1500536585536553 0  0.194974551899914 0.1502531923497262 0  0.1988434545186226 0.1412267786066319 0  0.139904094447954 0.0475963399258769 0  0.1148334976584671 0.02974143409366008 0  0.1520649328173654 0.02654404467430412 0  0.2166911463437691 0.1528682099456123 0  0.2096071079204251 0.1509316448471593 0  0.157033859236083 0.1549203861564464 0  0.1666775543554036 0.1527311555964813 0  0.1709026911846327 0.1428229394764081 0  0.1355360062927427 0.1738833905690768 0  0.13855578359055 0.1617173140777549 0  0.1273239957535082 0 0  0.2166066364647865 0.1318674827965409 0  0.2211645858397942 0.1228171087145059 0  0.122631157988491 0.09257199523221718 0  0.1543497545781645 0.1644684805108295 0  0.1465332544464342 0.1576333074590302 0  0.1768496449561323 0.1335347700706724 0  0.1432528331866671 0.1403427880156989 0  0.2063021547212692 0.09746645431143124 0  0.1445088930113995 0.1682503620331025 0  0.145931504770643 0.1790663128181236 0  0.162910430003803 0.1664684656256651 0  0.1583987151779087 0.1722631454351573 0  0.1581391111780151 0.09342872668547121 0  0.1742197252835808 0.15715869474974 0  0.1682222986673531 0.1613971801805478 0  0.1417345422718611 0.1196357446143074 0  0.1800175691778405 0.1220029873035379 0  0.1900464160197788 0.1434391807715867 0  0.2340427519707383 0.12500661673201 0  0.1746666922495988 0.1499058539490714 0  0.2092567323014181 0.1231268265338988 0  0.2148660291046949 0.1110801690257468 0  0.117949309539449 0.1314289940198134 0  0.1358421380985344 0.07184101253224438 0  0.1134537715612197 0.07678361544475715 0  0.09377624077125973 0 0  0.1970804225914977 0.07638822249409431 0  0.1512336529604225 0.1723680822309486 0  0.1692118283604925 0.1236341708275373 0  0.1777108984146039 0.03960446592307849 0  0.1570548482231846 0.05573307794728176 0  0.1564186559410363 0.1212209553520046 0  0.2067838776803175 0.1442269954006475 0  0.1547844879126891 0.178656207771761 0  0.2077074758137319 0.1359897507413737 0  0.1990707649929309 0.1296245621647927 0  0.1595371636519827 0.07838695808624725 0  0.2234150974217223 0.1558215752574715 0  0.1222490905968041 0.0568943244623543 0  0.2571393426600714 0.09909224058133874 0  0.252515959816117 0.07648796931448625 0  0.2416741650815652 0.0950846504064212 0  0.1619806510917199 0.1601561579838679 0  0.2000506922905834 0.05138745584171936 0  0.1769147510702603 0.06290595158306629 0  0.1620856860351972 0 0  0.213756581476409 0.08311851351475982 0  0.2259637082614391 0.09968835807421736 0  0.1981052433264291 0 0  0.2312810177471911 0.08330382810563154 0  0.2178953059102855 0.06599367533480922 0  0.2280545270734199 0.114161215267224 0  0.2437828577465094 0.1110862473067074 0  0.2741016576309132 0 0  0.1874494447592934 0.1304389264391784 0  0.1261668873624441 0.1203748521618074 0  0.1851500288844805 0.1377443395869293 0  0.247794183473202 0.05155939024503531 0  0.179425619413292 0.01748466926548749 0  0.1185608756269049 0.1083965233746596 0  0.1795103306938107 0.08060563341732667 0  0.1927059842241056 0.1364147326068345 0  0.2356079172485811 0.06536850945193971 0  0.1897996484266387 0.1213827416278163 0  </DataArray>
</Points>
<Cells>
<DataArray  type="UInt32"  Name="connectivity"  format="ascii">0 1 2  3 4 5  6 7 8  9 1 2  10 11 12  13 14 15  16 7 8  17 18 19  20 21 22  10 23 24  17 18 25  26 27 28  29 30 31  32 33 4  34 35 2  0 36 2  16 37 38  39 30 31  3 40 41  42 14 15  34 43 44  0 36 45  6 8 46  47 23 24  48 37 38  3 4 40  48 49 37  9 1 46  9 8 44  9 34 2  50 51 43  11 12 52  53 54 35  48 43 44  13 14 55  10 11 56  13 11 52  8 44 38  36 35 2  20 22 57  3 58 41  21 22 59  36 22 45  9 34 44  60 23 61  6 7 62  42 63 64  27 28 57  65 39 30  66 47 24  48 43 67  11 56 68  48 49 67  6 1 55  69 31 70  29 31 70  0 1 71  26 28 72  27 20 57  32 4 5  47 23 61  33 4 72  73 49 67  60 74 75  16 8 38  10 12 24  51 43 67  60 74 40  6 1 46  76 63 15  13 11 71  42 63 15  74 28 75  77 32 5  76 63 70  29 30 78  79 80 81  53 35 59  50 43 82  66 83 84  39 85 31  54 35 82  66 47 86  47 87 86  88 17 19  69 83 19  74 4 40  51 73 67  36 35 59  89 80 81  66 83 90  47 61 87  60 75 23  91 92 87  17 93 25  94 45 56  36 22 59  9 8 46  6 55 95  13 55 71  1 55 71  22 45 96  91 92 58  18 25 97  0 45 68  21 53 59  29 63 70  69 19 98  69 83 84  76 15 52  42 14 99  63 64 78  76 12 100  33 26 72  74 28 72  34 43 82  28 75 101  45 56 68  74 4 72  34 35 82  18 90 102  75 23 103  94 75 103  14 55 95  13 15 52  76 84 100  85 88 98  18 83 90  0 71 68  69 84 70  92 87 81  76 84 70  76 12 52  89 90 86  66 90 86  18 97 102  94 45 96  89 87 86  12 24 100  89 80 102  18 83 19  66 24 100  94 75 101  66 84 100  48 44 38  89 90 102  69 31 98  54 50 82  29 63 78  60 61 41  11 71 68  10 23 103  91 61 87  94 56 103  14 99 95  80 97 102  91 58 41  22 57 96  60 40 41  28 57 101  85 31 98  10 56 103  91 61 41  6 62 95  88 19 98  79 92 81  57 96 101  89 87 81  94 96 101  </DataArray>
<DataArray  type="UInt32"  Name="offsets"  format="ascii">3 6 9 12 15 18 21 24 27 30 33 36 39 42 45 48 51 54 57 60 63 66 69 72 75 78 81 84 87 90 93 96 99 102 105 108 111 114 117 120 123 126 129 132 135 138 141 144 147 150 153 156 159 162 165 168 171 174 177 180 183 186 189 192 195 198 201 204 207 210 213 216 219 222 225 228 231 234 237 240 243 246 249 252 255 258 261 264 267 270 273 276 279 282 285 288 291 294 297 300 303 306 309 312 315 318 321 324 327 330 333 336 339 342 345 348 351 354 357 360 363 366 369 372 375 378 381 384 387 390 393 396 399 402 405 408 411 414 417 420 423 426 429 432 435 438 441 444 447 450 453 456 459 462 465 468 471 474 477 480 483 486 489 492 495 498 501 504 507 </DataArray>
<DataArray  type="UInt8"  Name="types"  format="ascii">5 5 5 5 5 5 5 5 5 5 5 5 5 5 5 5 5 5 5 5 5 5 5 5 5 5 5 5 5 5 5 5 5 5 5 5 5 5 5 5 5 5 5 5 5 5 5 5 5 5 5 5 5 5 5 5 5 5 5 5 5 5 5 5 5 5 5 5 5 5 5 5 5 5 5 5 5 5 5 5 5 5 5 5 5 5 5 5 5 5 5 5 5 5 5 5 5 5 5 5 5 5 5 5 5 5 5 5 5 5 5 5 5 5 5 5 5 5 5 5 5 5 5 5 5 5 5 5 5 5 5 5 5 5 5 5 5 5 5 5 5 5 5 5 5 5 5 5 5 5 5 5 5 5 5 5 5 5 5 5 5 5 5 5 5 5 5 5 5 </DataArray>
</Cells>
<PointData  Vectors="f_43-0"> 
<DataArray  type="Float64"  Name="f_43-0"  NumberOfComponents="3" format="ascii">2.6803686228407972e+00 -1.2064739040959889e+00 0.0000000000000000e+00  2.3860513275074320e+00 -1.1143407370509666e+00 0.0000000000000000e+00  2.5581586497076731e+00 -1.4908287758733496e+00 0.0000000000000000e+00  2.1565367888370681e+00 -2.0558898327039946e-01 0.0000000000000000e+00  1.1612813827174031e+00 -8.3401742100943019e-02 0.0000000000000000e+00  2.6959198500087556e-01 -4.1353711182598139e-02 0.0000000000000000e+00  2.1936686593831434e+00 -9.4162693470458492e-01 0.0000000000000000e+00  2.0420486011158441e+00 -8.4394922708919884e-01 0.0000000000000000e+00  2.0648849830625062e+00 -1.1227584692336201e+00 0.0000000000000000e+00  2.2406666015654908e+00 -1.4125428879512729e+00 0.0000000000000000e+00  2.8012464457599564e+00 -7.9334186391498673e-01 0.0000000000000000e+00  2.5726165564035570e+00 -8.8607371582152872e-01 0.0000000000000000e+00  2.4307699267523857e+00 -6.4732082981867856e-01 0.0000000000000000e+00  2.3082950613610378e+00 -7.6312941049679295e-01 0.0000000000000000e+00  2.1524957745983135e+00 -6.9379663600869657e-01 0.0000000000000000e+00  2.0959507696221475e+00 -5.9543045613121848e-01 0.0000000000000000e+00  1.8302667020005339e+00 -9.5616875653116418e-01 0.0000000000000000e+00  0.0000000000000000e+00 0.0000000000000000e+00 0.0000000000000000e+00  1.8399719514589616e+00 -1.5014508071064955e-01 0.0000000000000000e+00  1.4373155276049820e+00 -8.8179613497043050e-02 0.0000000000000000e+00  0.0000000000000000e+00 0.0000000000000000e+00 0.0000000000000000e+00  0.0000000000000000e+00 0.0000000000000000e+00 0.0000000000000000e+00  2.9915757501913758e+00 -1.3426643425698597e+00 0.0000000000000000e+00  2.9721125072788146e+00 -7.0823281348861700e-01 0.0000000000000000e+00  2.6053911331932085e+00 -5.8986654243839642e-01 0.0000000000000000e+00  1.7882040668623549e+00 -1.3765390457906796e-02 0.0000000000000000e+00  0.0000000000000000e+00 0.0000000000000000e+00 0.0000000000000000e+00  0.0000000000000000e+00 0.0000000000000000e+00 0.0000000000000000e+00  2.4714866276958727e+00 -5.5435775032305923e-01 0.0000000000000000e+00  1.4658983039366382e+00 -2.6950549406653995e-01 0.0000000000000000e+00  9.7324533704601801e-01 -1.3617280546656013e-01 0.0000000000000000e+00  1.1471225367259505e+00 -1.2860878772757928e-01 0.0000000000000000e+00  0.0000000000000000e+00 0.0000000000000000e+00 0.0000000000000000e+00  0.0000000000000000e+00 0.0000000000000000e+00 0.0000000000000000e+00  2.2226558408731272e+00 -1.7732050000286106e+00 0.0000000000000000e+00  2.5142718850622923e+00 -1.8437869931909787e+00 0.0000000000000000e+00  2.8889955905387317e+00 -1.5243098956252534e+00 0.0000000000000000e+00  1.4082507413854748e+00 -9.9772377923235700e-01 0.0000000000000000e+00  1.7763603082366259e+00 -1.2343087970352251e+00 0.0000000000000000e+00  0.0000000000000000e+00 0.0000000000000000e+00 0.0000000000000000e+00  3.0056951158669549e+00 -4.9228132015473042e-01 0.0000000000000000e+00  3.2165249980431749e+00 -5.1818224806079149e-01 0.0000000000000000e+00  1.9657761872404971e+00 -5.2957477262382380e-01 0.0000000000000000e+00  1.6670980430731206e+00 -1.8651756157490942e+00 0.0000000000000000e+00  1.9361683634760838e+00 -1.4701540975274705e+00 0.0000000000000000e+00  2.9866152034629252e+00 -1.2235572132245442e+00 0.0000000000000000e+00  2.2624523093825029e+00 -1.1531040233042091e+00 0.0000000000000000e+00  2.7705681124301682e+00 -5.2169792316636387e-01 0.0000000000000000e+00  1.5065475288736545e+00 -1.4430541633720970e+00 0.0000000000000000e+00  8.9376141801657638e-01 -1.2844899565723582e+00 0.0000000000000000e+00  0.0000000000000000e+00 0.0000000000000000e+00 0.0000000000000000e+00  0.0000000000000000e+00 0.0000000000000000e+00 0.0000000000000000e+00  2.2740721044139915e+00 -6.4522540211007284e-01 0.0000000000000000e+00  0.0000000000000000e+00 0.0000000000000000e+00 0.0000000000000000e+00  0.0000000000000000e+00 0.0000000000000000e+00 0.0000000000000000e+00  2.2909326832981529e+00 -8.8147169706355510e-01 0.0000000000000000e+00  2.8956627478242880e+00 -9.7022324648352409e-01 0.0000000000000000e+00  2.6547743419337553e+00 -8.1935153439053843e-01 0.0000000000000000e+00  3.1562435330196976e+00 -3.8307155693004136e-01 0.0000000000000000e+00  2.6405424746137247e+00 -1.4771114880254508e+00 0.0000000000000000e+00  3.1869754543868716e+00 -6.4906905277414140e-01 0.0000000000000000e+00  3.0550261752753691e+00 -5.4487613192159645e-01 0.0000000000000000e+00  2.0940287469977030e+00 -7.2866962486846498e-01 0.0000000000000000e+00  1.8060858056566222e+00 -4.3485838631532592e-01 0.0000000000000000e+00  1.7286757637615935e+00 -4.0293959977560972e-01 0.0000000000000000e+00  0.0000000000000000e+00 0.0000000000000000e+00 0.0000000000000000e+00  2.3375353718776561e+00 -4.3675932649368360e-01 0.0000000000000000e+00  1.1930364800386630e+00 -1.7055219823197896e+00 0.0000000000000000e+00  2.7273075218642857e+00 -1.0536094399795917e+00 0.0000000000000000e+00  1.5726092357882853e+00 -2.0781290445858194e-01 0.0000000000000000e+00  1.7152496658784020e+00 -3.3542507152345552e-01 0.0000000000000000e+00  2.4960774922936344e+00 -9.9652606457264314e-01 0.0000000000000000e+00  1.1822664028793215e+00 -1.1711756492921475e-01 0.0000000000000000e+00  0.0000000000000000e+00 0.0000000000000000e+00 0.0000000000000000e+00  2.8754978622440142e+00 -5.3633745773058550e-01 0.0000000000000000e+00  3.2442817918957307e+00 -8.2363348093503963e-01 0.0000000000000000e+00  2.0855607598848027e+00 -5.1562878151406455e-01 0.0000000000000000e+00  0.0000000000000000e+00 0.0000000000000000e+00 0.0000000000000000e+00  1.4958085909322005e+00 -3.0560922847273092e-01 0.0000000000000000e+00  2.9633484231090796e+00 -2.1649329490516817e-01 0.0000000000000000e+00  2.6192554780779393e+00 -1.8860118325045502e-01 0.0000000000000000e+00  2.8830595990177055e+00 -2.9224072400507944e-01 0.0000000000000000e+00  1.9691788284915073e+00 -1.8270831750911021e+00 0.0000000000000000e+00  1.8997905419837204e+00 -2.5988047842292455e-01 0.0000000000000000e+00  1.9757799397619009e+00 -3.7753619311103986e-01 0.0000000000000000e+00  0.0000000000000000e+00 0.0000000000000000e+00 0.0000000000000000e+00  2.5732591114388459e+00 -3.9469321820436792e-01 0.0000000000000000e+00  2.9079726484229869e+00 -4.0148386465730962e-01 0.0000000000000000e+00  0.0000000000000000e+00 0.0000000000000000e+00 0.0000000000000000e+00  2.6563993389493854e+00 -3.1114959817202037e-01 0.0000000000000000e+00  2.2970015763884071e+00 -2.9163125721993033e-01 0.0000000000000000e+00  3.1280142806624385e+00 -4.4044141923980845e-01 0.0000000000000000e+00  3.1120579159239159e+00 -3.1249945013927904e-01 0.0000000000000000e+00  0.0000000000000000e+00 0.0000000000000000e+00 0.0000000000000000e+00  3.1571036908122165e+00 -1.0428923363121796e+00 0.0000000000000000e+00  2.1527442478135206e+00 -7.5273153182688102e-01 0.0000000000000000e+00  3.1755202782815144e+00 -1.1586268012910670e+00 0.0000000000000000e+00  2.1767284447441124e+00 -1.2491185899089528e-01 0.0000000000000000e+00  1.1324116272406963e+00 -6.4171472220275597e-02 0.0000000000000000e+00  2.0577108947371734e+00 -6.1492749675638914e-01 0.0000000000000000e+00  2.2826214775983269e+00 -5.1250844362190595e-01 0.0000000000000000e+00  3.2350599060427498e+00 -9.5998336035827991e-01 0.0000000000000000e+00  2.3679676309010782e+00 -2.2116056231766545e-01 0.0000000000000000e+00  3.0249075387113420e+00 -8.6697239130212744e-01 0.0000000000000000e+00  </DataArray> 
</PointData> 
</Piece>
</UnstructuredGrid>
</VTKFile>