<?xml version="1.0"?>
<VTKFile type="UnstructuredGrid"  version="0.1"  >
<UnstructuredGrid>
<Piece  NumberOfPoints="102" NumberOfCells="169">
<Points>
<DataArray  type="Float64"  NumberOfComponents="3"  format="ascii">0.5626584888143201 0.21 0  0.5633122436674589 0.1999814296467508 0  0.5571672426447437 0.2036011176410121 0  0.5626584888145268 0.19 0  0.5688286748170428 0.1961819304477386 0  0.5688286748170693 0.203818069552238 0  0.5571594006495384 0.1963685282145804 0  0.6 0.19 0  0.5925316977628897 0.19 0  0.5965740209510578 0.1927759733278094 0  0.5887803774232762 0.2001272386983733 0  0.5815926498168407 0.1966545283159175 0  0.5814408164431408 0.2041285596160068 0  0.5850633955257988 0.19 0  0.5775950932887378 0.19 0  0.5745072403740523 0.2002044435018727 0  0.5511891430099709 0.2001122610077113 0  0.5439877332217911 0.197091582686394 0  0.5439623148931173 0.2040856076781014 0  0.5365194309847112 0.1999999999999436 0  0.547721884340339 0.19 0  0.5402535821032429 0.19 0  0.5701267910514778 0.21 0  0.5701267910515998 0.19 0  0.574400031298126 0.1945411130107761 0  0.5887471324735476 0.1946190227059995 0  0.5551901865771842 0.21 0  0.5514560354586301 0.2056971942287897 0  0.5551901865773963 0.19 0  0.5743797868482748 0.2056178169806182 0  0.5511851248594936 0.1945772515115504 0  0.5365194309847112 0.1943028057711659 0  0.54772188434007 0.21 0  0.594380730180568 0.1966558399668133 0  0.5775950932886138 0.21 0  0.5327852798661811 0.19 0  0.6 0.1950000000000217 0  0.6244559818022579 0.1024805481876779 0  0.6331542554485198 0.1311064488920115 0  0.604876951083344 0.1323679928240978 0  0.5950070799606315 0.1111116928105405 0  0.5805147821309363 0.1750906865638377 0  0.5830971905392573 0.1610562557540074 0  0.5891905322413319 0.173297484523883 0  0.6385847074107548 0.1562173919888177 0  0.6641520523959832 0.1503720468916702 0  0.5857082964501902 0.1444062384003248 0  0.5690392421172527 0.1384821647678796 0  0.5733051421814971 0.1505504706653721 0  0.596265848881445 0.1672046255295837 0  0.5813292444072671 0.1834697536045245 0  0.5742993681899213 0.1835891178222343 0  0.5975491358239944 0.1534040596821995 0  0.5439877332217901 0.1676928600783786 0  0.5349004284018322 0.1565876018036672 0  0.5520209547307013 0.1576841814684212 0  0.6065875229028267 0.1922148945199381 0  0.5688911489504639 0.2221570651130901 0  0.5600714413167317 0.2168050759646857 0  0.5668496426355557 0.2152032773847839 0  0.5691769360607744 0.103623921999164 0  0.5817033662356486 0.1258684224449203 0  0.5656709189996393 0.1218263852353965 0  0.5666635607831564 0.161267807310367 0  0.5731424580414761 0.1690378585407531 0  0.5588244563271773 0.225349035787779 0  0.5519051872593019 0.2166420053265535 0  0.59743928374328 0.184845006919697 0  0.6044284617508302 0.1869248475987405 0  0.5701061294197327 0.1769562172296277 0  0.5448392573395288 0.1456266733529302 0  0.560873207311089 0.1493935172983297 0  0.6153880197825543 0.1501582873444675 0  0.605300577487017 0.1810288040931519 0  0.5966020906539898 0.1778579871513863 0  0.595034110037278 0.08371649311769892 0  0.6580228992389956 0.1177787934340178 0  0.5536582001352554 0.1343709232030346 0  0.5595716197895517 0.176498756977387 0  0.566392639933061 0.1840461062417861 0  0.6083886978654316 0.1626240187349565 0  0.5888145049962641 0.182376060046032 0  0.559009501696121 0.184247465949259 0  0.6154136810599321 0.175174545882801 0  0.6039303205755 0.1726140165641641 0  0.6229518475759098 0.1637562961874416 0  0.5366299525895074 0.1825690825227473 0  0.5514474833664602 0.1826065372792922 0  0.6341710204839701 0.1765827244303529 0  0.6209583882721262 0.1847010880111589 0  0.5653857196022115 0.1707921017691255 0  0.5316967135713353 0.1673421178078786 0  0.5562468381785084 0.1675066640297715 0  0.5439877332217904 0.1783210023422619 0  0.5371890579013414 0.1744210598886847 0  0.5509385065020694 0.1745004300116409 0  0.5294745265341012 0.1761054820336709 0  0.5740261188292279 0.2158012409855351 0  0.5439877332217911 0.1852618121745313 0  0.5666194772443838 0.07265723178580256 0  0.5932743238853959 0.04945528001359441 0  0.6112872589661165 0.1855979267337469 0  </DataArray>
</Points>
<Cells>
<DataArray  type="UInt32"  Name="connectivity"  format="ascii">0 1 2  3 1 4  0 1 5  3 1 6  7 8 9  10 11 12  13 14 11  15 11 12  16 17 18  19 17 18  20 21 17  0 22 5  23 3 4  14 11 24  13 11 25  26 0 2  15 11 24  10 11 25  16 18 27  3 28 6  15 12 29  20 17 30  21 17 31  16 17 30  19 17 31  16 2 6  1 2 6  32 18 27  15 4 5  1 4 5  8 33 9  34 12 29  16 6 30  8 13 25  14 23 24  22 34 29  32 26 27  28 20 30  21 35 31  36 33 9  28 6 30  16 2 27  26 2 27  7 36 9  8 33 25  22 5 29  23 4 24  10 33 25  15 4 24  15 5 29  37 38 39  37 40 39  41 42 43  44 38 45  46 47 48  49 42 43  41 50 51  46 39 52  53 54 55  7 36 56  57 58 59  60 61 62  63 42 64  65 58 66  60 40 61  7 67 68  41 69 51  70 55 71  72 39 52  73 67 68  65 57 58  74 73 67  37 40 75  41 42 64  76 38 45  70 77 71  78 69 79  46 47 61  60 40 75  37 76 38  72 80 52  41 81 50  78 82 79  63 42 48  72 38 39  70 54 55  44 72 38  8 13 81  83 84 80  26 0 58  47 77 71  7 8 67  44 72 85  46 39 61  21 35 86  28 20 87  83 88 89  49 74 43  41 81 43  8 81 67  41 69 64  78 69 90  53 54 91  53 55 92  78 87 82  49 42 52  13 14 50  83 80 85  7 56 68  3 28 82  46 42 48  49 74 84  13 81 50  74 73 84  26 58 66  32 26 66  0 58 59  83 88 85  63 55 92  28 87 82  53 93 94  53 93 95  96 86 94  23 3 79  74 81 67  22 34 97  78 87 95  21 86 98  20 87 98  14 23 51  60 75 99  49 84 80  53 94 91  0 22 59  83 73 84  53 95 92  49 80 52  40 39 61  14 50 51  74 81 43  3 82 79  78 92 90  100 75 99  63 92 90  23 79 51  22 97 59  63 55 71  20 21 98  47 61 62  46 42 52  93 86 94  83 73 101  93 87 95  96 94 91  93 86 98  44 88 85  93 87 98  56 68 101  78 95 92  47 62 77  83 89 101  63 48 71  57 97 59  69 79 51  72 80 85  69 64 90  47 48 71  63 64 90  73 68 101  </DataArray>
<DataArray  type="UInt32"  Name="offsets"  format="ascii">3 6 9 12 15 18 21 24 27 30 33 36 39 42 45 48 51 54 57 60 63 66 69 72 75 78 81 84 87 90 93 96 99 102 105 108 111 114 117 120 123 126 129 132 135 138 141 144 147 150 153 156 159 162 165 168 171 174 177 180 183 186 189 192 195 198 201 204 207 210 213 216 219 222 225 228 231 234 237 240 243 246 249 252 255 258 261 264 267 270 273 276 279 282 285 288 291 294 297 300 303 306 309 312 315 318 321 324 327 330 333 336 339 342 345 348 351 354 357 360 363 366 369 372 375 378 381 384 387 390 393 396 399 402 405 408 411 414 417 420 423 426 429 432 435 438 441 444 447 450 453 456 459 462 465 468 471 474 477 480 483 486 489 492 495 498 501 504 507 </DataArray>
<DataArray  type="UInt8"  Name="types"  format="ascii">5 5 5 5 5 5 5 5 5 5 5 5 5 5 5 5 5 5 5 5 5 5 5 5 5 5 5 5 5 5 5 5 5 5 5 5 5 5 5 5 5 5 5 5 5 5 5 5 5 5 5 5 5 5 5 5 5 5 5 5 5 5 5 5 5 5 5 5 5 5 5 5 5 5 5 5 5 5 5 5 5 5 5 5 5 5 5 5 5 5 5 5 5 5 5 5 5 5 5 5 5 5 5 5 5 5 5 5 5 5 5 5 5 5 5 5 5 5 5 5 5 5 5 5 5 5 5 5 5 5 5 5 5 5 5 5 5 5 5 5 5 5 5 5 5 5 5 5 5 5 5 5 5 5 5 5 5 5 5 5 5 5 5 5 5 5 5 5 5 </DataArray>
</Cells>
<PointData  Vectors="f_43-0"> 
<DataArray  type="Float64"  Name="f_43-0"  NumberOfComponents="3" format="ascii">1.2630807561885352e-05 2.0890785869050654e-06 0.0000000000000000e+00  -2.2913360379647452e-05 4.5973809701133377e-07 0.0000000000000000e+00  -1.0539167466702017e-05 2.1964421248004352e-05 0.0000000000000000e+00  -5.8114324775158582e-05 3.3766129879357899e-06 0.0000000000000000e+00  -3.6027803321196868e-05 -1.8899587951637192e-05 0.0000000000000000e+00  -8.9859547402041110e-06 -1.9327843002224172e-05 0.0000000000000000e+00  -3.6049729229642722e-05 2.2507258167016112e-05 0.0000000000000000e+00  -5.6774319249769763e-05 -1.2951479749728886e-04 0.0000000000000000e+00  -5.7045913354101071e-05 -1.0312718319105558e-04 0.0000000000000000e+00  -4.7272496545617107e-05 -1.1757941343971703e-04 0.0000000000000000e+00  -2.1390492874395357e-05 -8.9975227444547278e-05 0.0000000000000000e+00  -3.3845277047270323e-05 -6.4314003740399993e-05 0.0000000000000000e+00  -7.3109225442172777e-06 -6.4047686249844838e-05 0.0000000000000000e+00  -5.7234237166137201e-05 -7.6463771433867757e-05 0.0000000000000000e+00  -5.7455953775214879e-05 -4.9814982309867340e-05 0.0000000000000000e+00  -2.1528109210142243e-05 -3.9276730474374315e-05 0.0000000000000000e+00  -2.3320715161368141e-05 4.3357418782949587e-05 0.0000000000000000e+00  -3.4496412090184997e-05 6.8999719222251763e-05 0.0000000000000000e+00  -1.0024003225021976e-05 6.8468913370369066e-05 0.0000000000000000e+00  -2.5058904480821467e-05 9.4954950616178615e-05 0.0000000000000000e+00  -5.8990880819472511e-05 5.6346618479227263e-05 0.0000000000000000e+00  -5.9467891447124192e-05 8.2675505173213662e-05 0.0000000000000000e+00  1.3132708073004796e-05 -2.4289464959827138e-05 0.0000000000000000e+00  -5.7751679747100949e-05 -2.3199775900335324e-05 0.0000000000000000e+00  -4.1567667768586659e-05 -3.8629661065178705e-05 0.0000000000000000e+00  -4.0876525815549955e-05 -8.9743036184700945e-05 0.0000000000000000e+00  1.2008630889853505e-05 2.8422874403635066e-05 0.0000000000000000e+00  -3.6090294553994174e-06 4.1953207834071970e-05 0.0000000000000000e+00  -5.8533030925734389e-05 2.9900436855599026e-05 0.0000000000000000e+00  -2.2890232718478582e-06 -3.9093443648236163e-05 0.0000000000000000e+00  -4.2744920719133336e-05 4.3785352458278345e-05 0.0000000000000000e+00  -4.4804685646517793e-05 9.5459147170535533e-05 0.0000000000000000e+00  1.1255076778094607e-05 5.4684507799185608e-05 0.0000000000000000e+00  -3.3667097813094749e-05 -1.0984242993795278e-04 0.0000000000000000e+00  1.3516798148492294e-05 -5.0690729399413160e-05 0.0000000000000000e+00  -5.9950788683086518e-05 1.0884198044283320e-04 0.0000000000000000e+00  -3.9481545800790540e-05 -1.2968992641246830e-04 0.0000000000000000e+00  1.2479862726588669e+00 5.5940551351867963e-02 0.0000000000000000e+00  1.2171604610359514e+00 8.1420842089826417e-02 0.0000000000000000e+00  1.2353424067124652e+00 7.1883715633575193e-02 0.0000000000000000e+00  1.2687087592727424e+00 5.5357321841402921e-02 0.0000000000000000e+00  7.6497156145796785e-01 2.4675586179182880e-02 0.0000000000000000e+00  1.0643957390935779e+00 4.7906069017275982e-02 0.0000000000000000e+00  8.3545958517730867e-01 4.1487377064656709e-02 0.0000000000000000e+00  1.0953967141964902e+00 1.0462445058996889e-01 0.0000000000000000e+00  1.1212157865449484e+00 9.3913227848800351e-02 0.0000000000000000e+00  1.1991378664640009e+00 6.0260596933767410e-02 0.0000000000000000e+00  1.2192816293745228e+00 5.1287841700327089e-02 0.0000000000000000e+00  1.1576639474556101e+00 4.7575474464795584e-02 0.0000000000000000e+00  9.8280453716847482e-01 6.6311865603490477e-02 0.0000000000000000e+00  4.1890841599511264e-01 7.8413497050907541e-03 0.0000000000000000e+00  4.0067386836636737e-01 5.2875345987311159e-03 0.0000000000000000e+00  1.1490990166757045e+00 7.1836538323624397e-02 0.0000000000000000e+00  9.0571474986522649e-01 1.6891766001278789e-02 0.0000000000000000e+00  1.0645313641198493e+00 2.8696694494118730e-02 0.0000000000000000e+00  1.0715310408769514e+00 3.0119865423539935e-02 0.0000000000000000e+00  8.0187923039440834e-02 4.6337050056187636e-02 0.0000000000000000e+00  6.5308784273734655e-01 -1.3189291653380409e-02 0.0000000000000000e+00  4.0787141805803812e-01 -3.8777242910099769e-03 0.0000000000000000e+00  3.3007646503486809e-01 -3.0740544798277115e-03 0.0000000000000000e+00  1.2879076271051757e+00 4.4377231443822336e-02 0.0000000000000000e+00  1.2564823186729526e+00 5.7710868685340533e-02 0.0000000000000000e+00  1.2686308970616786e+00 5.1474079493066309e-02 0.0000000000000000e+00  1.0430013073285231e+00 3.3034038028681705e-02 0.0000000000000000e+00  9.1389842636423790e-01 2.7494323567966047e-02 0.0000000000000000e+00  7.4872420314366928e-01 -1.3922598527029158e-02 0.0000000000000000e+00  3.9295780051843282e-01 -3.0232829462048571e-03 0.0000000000000000e+00  3.9895984241447974e-01 3.9765388498107089e-02 0.0000000000000000e+00  2.9548552603047973e-01 9.0741598712882759e-02 0.0000000000000000e+00  6.8310860169075149e-01 1.3749126878224750e-02 0.0000000000000000e+00  1.1682470063302461e+00 3.9820799674967676e-02 0.0000000000000000e+00  1.1557770492754817e+00 4.1264850901570706e-02 0.0000000000000000e+00  1.1633904558516275e+00 9.0369608357581288e-02 0.0000000000000000e+00  5.9581579822798059e-01 9.6312530758545650e-02 0.0000000000000000e+00  7.1010960907318277e-01 5.2790877442512693e-02 0.0000000000000000e+00  1.2613956138980511e+00 3.6974569723116933e-02 0.0000000000000000e+00  1.2132110503555582e+00 6.8464984174538571e-02 0.0000000000000000e+00  1.2310511633507497e+00 4.7430421663580857e-02 0.0000000000000000e+00  6.8483226938210995e-01 1.0487840777871391e-02 0.0000000000000000e+00  3.6725181167720466e-01 3.3548577408857925e-03 0.0000000000000000e+00  1.0525810072504524e+00 9.1541826346705754e-02 0.0000000000000000e+00  4.9316279139563529e-01 1.6596725418765557e-02 0.0000000000000000e+00  3.4998363125848297e-01 2.5409382173904173e-03 0.0000000000000000e+00  7.9211943644711735e-01 1.1581250085835396e-01 0.0000000000000000e+00  8.7072539903898238e-01 8.5736234502101299e-02 0.0000000000000000e+00  1.0229815473136292e+00 1.0901844682228248e-01 0.0000000000000000e+00  4.1806016451800415e-01 2.5509802967919213e-03 0.0000000000000000e+00  4.2631064726089402e-01 3.2278605431749984e-03 0.0000000000000000e+00  7.5093836629343069e-01 1.1816642652041452e-01 0.0000000000000000e+00  4.5863763659231249e-01 1.1224948651670406e-01 0.0000000000000000e+00  8.6153035828322677e-01 2.0083650666042473e-02 0.0000000000000000e+00  8.9888254243035992e-01 1.6232112746346120e-02 0.0000000000000000e+00  9.2408238586123626e-01 2.0252679389945329e-02 0.0000000000000000e+00  6.0289445180445045e-01 6.1396613428640421e-03 0.0000000000000000e+00  7.2865406403574107e-01 8.9955503662003649e-03 0.0000000000000000e+00  7.4027567392442328e-01 1.0747894664922628e-02 0.0000000000000000e+00  6.6827954444725268e-01 7.1826150034365668e-03 0.0000000000000000e+00  3.7127521373980249e-01 -4.8319948430299393e-03 0.0000000000000000e+00  2.8675192057857646e-01 1.2809301134783888e-03 0.0000000000000000e+00  1.2611606450051343e+00 2.6181121408570440e-02 0.0000000000000000e+00  1.1302276920848047e+00 1.3231776467012282e-02 0.0000000000000000e+00  3.8640490646207709e-01 1.0883119722355862e-01 0.0000000000000000e+00  </DataArray> 
</PointData> 
</Piece>
</UnstructuredGrid>
</VTKFile>