<?xml version="1.0"?>
<VTKFile type="UnstructuredGrid"  version="0.1"  >
<UnstructuredGrid>
<Piece  NumberOfPoints="104" NumberOfCells="168">
<Points>
<DataArray  type="Float64"  NumberOfComponents="3"  format="ascii">0.1123698019379044 0.2058991360802581 0  0.1106531987626008 0.1894643335925837 0  0.09638298985168356 0.2000713960717276 0  0.0534241021414831 0.2075428856341382 0  0.07538638723190919 0.1915913195394167 0  0.06726459509928774 0.2147740778951952 0  0.05117116986370451 0.1453484941029572 0  0.028576868323113 0.1257840022252348 0  0.02526469030969892 0.1581631046774197 0  0.07781603907681035 0.1514291067465787 0  0.06748599119092742 0.1295390004813558 0  0.04799687037553593 0.1900185470502504 0  0.09145562669711395 0.175668370620234 0  0.09635163646555502 0.1596076048115481 0  0.07646146193815946 0.1687797331838 0  0 0.05857142857161107 0  0 0.02928571428580012 0  0.02797905238142366 0.04239836249189064 0  0.06224717571675014 0.16049953533406 0  0 0.1464285714289574 0  0.09921229729781815 0.216694589313852 0  0.09898678642452967 0.1862327908870533 0  0.05400790163887537 0.1101452894911868 0  0.03212895351398194 0.09444182905744057 0  0.08319468457824891 0.2132940804249223 0  0.05506284017382649 0.2425906156552861 0  0.03234799839792719 0.2322323714096635 0  0.03317213267821684 0.2576605437337542 0  0.1292063859387973 0.160179270973018 0  0.1151037363297016 0.1585854167638264 0  0.1231191457617618 0.1724983802372761 0  0.1355360062927427 0.1738833905690768 0  0.1050372607361503 0.1429640509822009 0  0.1230381620938855 0.1450531231009962 0  0.0935028978038551 0.1155179240798671 0  0.111152240021284 0.1189096594659376 0  0.1054072552277489 0.1021549990488465 0  0.1096093854383046 0.1735927505678576 0  0 0.2050000000005308 0  0 0.175714285714732 0  0.02618711892167316 0.1853857958188918 0  0.01613142829340684 0.1072217040510405 0  0.122936306709419 0.1942457603434553 0  0.06019518928764452 0.1756854700606436 0  0.02666772661991777 0.0679778810487357 0  0 0.1171428571431897 0  0.1014345676140794 0.1290819941168235 0  0.117949309539449 0.1314289940198134 0  0.03021129466766341 0.2085417214687756 0  0.1036135449877143 0.05738959277900078 0  0.09466282906331301 0.08157239522441412 0  0.07832843537012292 0.06126359650172827 0  0.1391384346554765 0.1858795044738252 0  0.145931504770643 0.1790663128181236 0  0.122631157988491 0.09257199523221718 0  0.1134537715612197 0.07678361544475715 0  0.05222303834057849 0.2265528286728498 0  0.1148334976584671 0.02974143409366008 0  0.09081855865494762 0.03967545099949583 0  0.08022298127737337 0.02066125809180845 0  0.02189315577988027 0.02003654345635235 0  0.1547844879126891 0.178656207771761 0  0.1521457199348551 0.1855097315605723 0  0.09153146034330391 0.147014376487579 0  0.1287170257632792 0.184020996598548 0  0.15 0.2 0  0.1505393388476355 0.1926758619366523 0  0.1422409429600901 0.1949058082424083 0  0.08753885022423818 0.1327572923195972 0  0.09377624077125973 0 0  0.1190100010379731 0.1821161889112382 0  0.1505393388476328 0.2073241380633295 0  0.1411840007379324 0.2116418969121702 0  0.142418795187722 0.2037346032343752 0  0 0.2635714285718054 0  0.01618611334675497 0.2427628432417809 0  0.05089208832759198 0.1278218136608264 0  0.07652608185644398 0.1136649778936783 0  0 0.08785714285737878 0  0.1222490905968041 0.0568943244623543 0  0.05279799154606677 0.07413248748556238 0  0.05175480232928564 0.05161223413186988 0  0.1253993623290572 0.2064220893288703 0  0.1461361374362119 0.1877340006482242 0  0.04532626869875341 0.1677660334507069 0  0.1334936092195415 0.1996994045566088 0  0.05608725465409541 0.09204870468608509 0  0.07008568006437076 0.038573163912329 0  0 0 0  0.03015443760436003 0 0  0.01505266539966814 0.2227442931166357 0  0.1340862878862802 0.2075381961934842 0  0.07522121061998752 0.08286780747833024 0  0.06140001986583606 0 0  0.04981329681653419 0.02287349761798159 0  0.1332359054626095 0.1910279922431038 0  0.1185608756269049 0.1083965233746596 0  0.07392371664175142 0.2310989703896346 0  0.1315669208937715 0.2153401624373302 0  0.1208839583881551 0.2181173442085023 0  0.08823391104783466 0.09873317213709612 0  0 0.2342857142861561 0  0.0736413556775514 0.09691323218918799 0  0.1261668873624441 0.1203748521618074 0  </DataArray>
</Points>
<Cells>
<DataArray  type="UInt32"  Name="connectivity"  format="ascii">0 1 2  3 4 5  6 7 8  6 9 10  3 4 11  12 13 14  15 16 17  6 9 18  19 7 8  0 2 20  2 4 21  9 13 14  22 7 23  12 4 21  24 4 5  25 26 27  28 29 30  28 31 30  24 2 4  32 33 29  34 35 36  37 1 21  12 37 13  38 39 40  28 33 29  7 23 41  0 1 42  12 37 21  43 4 11  15 17 44  19 45 7  34 35 46  32 13 29  32 33 47  38 40 48  49 50 51  52 53 31  54 36 55  25 26 56  39 40 8  57 58 59  16 17 60  12 4 14  61 62 53  24 2 20  9 13 63  49 50 55  64 52 31  50 36 55  65 66 67  9 10 68  69 57 59  37 1 70  32 47 46  71 72 73  74 27 75  37 13 29  37 29 30  6 7 76  34 68 77  78 23 44  3 48 56  39 19 8  49 57 79  80 23 44  80 44 81  22 7 76  0 42 82  49 51 58  62 53 83  40 84 11  78 15 44  1 2 21  43 4 14  40 8 84  65 67 73  26 48 56  85 67 73  22 23 86  10 68 77  43 84 11  85 42 82  66 67 83  6 8 84  17 44 81  87 51 58  6 10 76  65 71 73  80 51 81  80 23 86  88 16 60  35 47 46  88 89 60  38 48 90  85 73 91  49 57 58  9 68 63  80 51 92  89 93 94  50 51 92  85 42 95  64 31 30  64 52 95  78 23 41  52 67 95  35 36 96  24 97 5  98 82 99  25 97 56  87 51 81  45 7 41  52 53 83  64 42 70  34 68 46  52 67 83  72 73 91  64 42 95  87 94 59  89 94 60  93 94 59  87 94 81  97 5 56  17 94 81  26 27 75  22 10 77  45 78 41  85 82 91  3 48 11  0 82 99  32 68 63  32 68 46  80 86 92  98 82 91  93 69 59  85 67 95  32 13 63  34 77 100  74 101 75  22 10 76  98 72 91  54 36 96  101 38 90  50 100 92  17 94 60  22 102 77  40 48 11  1 42 70  62 66 83  102 100 92  43 84 18  26 75 90  102 86 92  35 96 103  34 36 100  43 14 18  102 77 100  37 30 70  50 36 100  22 102 86  49 55 79  9 14 18  101 75 90  64 30 70  6 84 18  35 47 103  87 58 59  3 5 56  26 48 90  </DataArray>
<DataArray  type="UInt32"  Name="offsets"  format="ascii">3 6 9 12 15 18 21 24 27 30 33 36 39 42 45 48 51 54 57 60 63 66 69 72 75 78 81 84 87 90 93 96 99 102 105 108 111 114 117 120 123 126 129 132 135 138 141 144 147 150 153 156 159 162 165 168 171 174 177 180 183 186 189 192 195 198 201 204 207 210 213 216 219 222 225 228 231 234 237 240 243 246 249 252 255 258 261 264 267 270 273 276 279 282 285 288 291 294 297 300 303 306 309 312 315 318 321 324 327 330 333 336 339 342 345 348 351 354 357 360 363 366 369 372 375 378 381 384 387 390 393 396 399 402 405 408 411 414 417 420 423 426 429 432 435 438 441 444 447 450 453 456 459 462 465 468 471 474 477 480 483 486 489 492 495 498 501 504 </DataArray>
<DataArray  type="UInt8"  Name="types"  format="ascii">5 5 5 5 5 5 5 5 5 5 5 5 5 5 5 5 5 5 5 5 5 5 5 5 5 5 5 5 5 5 5 5 5 5 5 5 5 5 5 5 5 5 5 5 5 5 5 5 5 5 5 5 5 5 5 5 5 5 5 5 5 5 5 5 5 5 5 5 5 5 5 5 5 5 5 5 5 5 5 5 5 5 5 5 5 5 5 5 5 5 5 5 5 5 5 5 5 5 5 5 5 5 5 5 5 5 5 5 5 5 5 5 5 5 5 5 5 5 5 5 5 5 5 5 5 5 5 5 5 5 5 5 5 5 5 5 5 5 5 5 5 5 5 5 5 5 5 5 5 5 5 5 5 5 5 5 5 5 5 5 5 5 5 5 5 5 5 5 </DataArray>
</Cells>
<PointData  Vectors="f_43-0"> 
<DataArray  type="Float64"  Name="f_43-0"  NumberOfComponents="3" format="ascii">1.3164076501632491e+00 9.2468948765078135e-02 0.0000000000000000e+00  1.3574916484401789e+00 -1.8037633621455712e-01 0.0000000000000000e+00  1.5313181016953041e+00 -1.6948977790271547e-03 0.0000000000000000e+00  1.8371501469178266e+00 2.3991439627509659e-02 0.0000000000000000e+00  1.7281891219857322e+00 -5.6530688565685411e-02 0.0000000000000000e+00  1.7708971277643175e+00 7.5113817669181487e-02 0.0000000000000000e+00  1.7337513635935684e+00 -1.6319957455298756e-01 0.0000000000000000e+00  1.6443986993357369e+00 -9.7162333963746489e-02 0.0000000000000000e+00  1.8230819815946198e+00 -6.3951411334697505e-02 0.0000000000000000e+00  1.6976977557626600e+00 -2.6866248846177621e-01 0.0000000000000000e+00  1.6470047002339239e+00 -2.5138767501768100e-01 0.0000000000000000e+00  1.8512209156987915e+00 -3.4950240511528376e-02 0.0000000000000000e+00  1.6122697889783353e+00 -2.2495882858294594e-01 0.0000000000000000e+00  1.6200333885402292e+00 -3.6342894796837499e-01 0.0000000000000000e+00  1.7075892512370292e+00 -1.9701035405003386e-01 0.0000000000000000e+00  9.4884757305291434e-01 0.0000000000000000e+00 0.0000000000000000e+00  5.1395910207038464e-01 0.0000000000000000e+00 0.0000000000000000e+00  7.3533075679535953e-01 -5.6361791384571792e-02 0.0000000000000000e+00  1.7553510171424780e+00 -1.7390915424608092e-01 0.0000000000000000e+00  1.7790891994716789e+00 0.0000000000000000e+00 0.0000000000000000e+00  1.5398970492452213e+00 1.8367130161089515e-01 0.0000000000000000e+00  1.5168011266232480e+00 -1.6812283304702369e-01 0.0000000000000000e+00  1.5276410190992340e+00 -1.9236428667152647e-01 0.0000000000000000e+00  1.3811849645700405e+00 -1.0707968313283517e-01 0.0000000000000000e+00  1.6686634531657805e+00 9.3403138970034744e-02 0.0000000000000000e+00  1.8041200822214312e+00 1.5262474964609526e-01 0.0000000000000000e+00  1.8785994349378754e+00 6.4544002917979029e-02 0.0000000000000000e+00  1.7952646041906570e+00 9.8382084303117151e-02 0.0000000000000000e+00  1.4584849409297431e+00 -7.7558830163186299e-01 0.0000000000000000e+00  1.5368116938899175e+00 -5.5840562443955033e-01 0.0000000000000000e+00  1.3160614561797446e+00 -5.6889631718063405e-01 0.0000000000000000e+00  1.1174727807926441e+00 -8.0820042235892231e-01 0.0000000000000000e+00  1.6414140565584261e+00 -4.8582199044191643e-01 0.0000000000000000e+00  1.6336420906851641e+00 -6.8544178807378064e-01 0.0000000000000000e+00  1.5992488077398948e+00 -3.8332249856524148e-01 0.0000000000000000e+00  1.6522185433255645e+00 -4.9864141324742284e-01 0.0000000000000000e+00  1.5619846769152832e+00 -4.0401903775858672e-01 0.0000000000000000e+00  1.4672278890400592e+00 -3.7062715617548059e-01 0.0000000000000000e+00  1.9372304616446698e+00 0.0000000000000000e+00 0.0000000000000000e+00  1.8976951461021061e+00 0.0000000000000000e+00 0.0000000000000000e+00  1.9007573141872800e+00 -2.6203453414157432e-02 0.0000000000000000e+00  1.4978674734736976e+00 -5.6078540293400862e-02 0.0000000000000000e+00  1.0947335034981764e+00 -1.4662830760949910e-01 0.0000000000000000e+00  1.7845808696620193e+00 -1.0953600677583608e-01 0.0000000000000000e+00  1.0827581042084737e+00 -7.6110786693866422e-02 0.0000000000000000e+00  1.5814126217534450e+00 0.0000000000000000e+00 0.0000000000000000e+00  1.6472604771194697e+00 -4.5433598204064846e-01 0.0000000000000000e+00  1.6779654385595508e+00 -5.9314003087796319e-01 0.0000000000000000e+00  1.9119946554014731e+00 1.8085326449060541e-02 0.0000000000000000e+00  1.1330859133832036e+00 -2.2590752229022015e-01 0.0000000000000000e+00  1.3635521935913133e+00 -2.9308655922144639e-01 0.0000000000000000e+00  1.0890778684546623e+00 -1.8819751429288351e-01 0.0000000000000000e+00  7.1185957789351528e-01 -6.2794169989417314e-01 0.0000000000000000e+00  7.0190522229065555e-01 -1.0284380262158517e+00 0.0000000000000000e+00  1.5785169209730430e+00 -4.3340256656434162e-01 0.0000000000000000e+00  1.3910671203753908e+00 -3.3166623733743172e-01 0.0000000000000000e+00  1.8317922331940271e+00 9.0121386573228768e-02 0.0000000000000000e+00  8.0576512621825824e-01 -1.1205012404036567e-01 0.0000000000000000e+00  8.5379871688194120e-01 -1.3501239423507533e-01 0.0000000000000000e+00  5.3000652562369843e-01 -5.1441541301710449e-02 0.0000000000000000e+00  3.7290625673870620e-01 -2.1255222322346883e-02 0.0000000000000000e+00  0.0000000000000000e+00 0.0000000000000000e+00 0.0000000000000000e+00  0.0000000000000000e+00 0.0000000000000000e+00 0.0000000000000000e+00  1.6513516118099625e+00 -3.7164808531836185e-01 0.0000000000000000e+00  1.0526584907878527e+00 -4.6320703302181554e-01 0.0000000000000000e+00  0.0000000000000000e+00 0.0000000000000000e+00 0.0000000000000000e+00  0.0000000000000000e+00 0.0000000000000000e+00 0.0000000000000000e+00  3.8548596427992599e-01 -2.7933655701164400e-01 0.0000000000000000e+00  1.6512127077734868e+00 -3.5967413215608668e-01 0.0000000000000000e+00  0.0000000000000000e+00 0.0000000000000000e+00 0.0000000000000000e+00  1.2580060967723525e+00 -3.7311338605024247e-01 0.0000000000000000e+00  0.0000000000000000e+00 0.0000000000000000e+00 0.0000000000000000e+00  5.6394308322050857e-01 5.3852934531891095e-01 0.0000000000000000e+00  3.6142801213011833e-01 1.8063856901950043e-01 0.0000000000000000e+00  1.7790891994675599e+00 0.0000000000000000e+00 0.0000000000000000e+00  1.8657957132436871e+00 4.1197117076680216e-02 0.0000000000000000e+00  1.6469495968284635e+00 -1.8363678562660296e-01 0.0000000000000000e+00  1.5669746057442580e+00 -2.9336707013265712e-01 0.0000000000000000e+00  1.3046654129469177e+00 0.0000000000000000e+00 0.0000000000000000e+00  1.2109229078433832e+00 -2.5060510442970185e-01 0.0000000000000000e+00  1.1847087423060547e+00 -1.5191096444957755e-01 0.0000000000000000e+00  8.9986292359142162e-01 -1.1073334067314540e-01 0.0000000000000000e+00  1.0361664361806031e+00 1.6114597039846051e-01 0.0000000000000000e+00  3.4574776144065023e-01 -6.7873580233151343e-01 0.0000000000000000e+00  1.8176172345445500e+00 -9.4898025310173453e-02 0.0000000000000000e+00  7.5431351279305048e-01 -2.5482345680195247e-02 0.0000000000000000e+00  1.3746576509767525e+00 -1.8650898576591390e-01 0.0000000000000000e+00  7.6859226674488434e-01 -1.0611929986757314e-01 0.0000000000000000e+00  0.0000000000000000e+00 0.0000000000000000e+00 0.0000000000000000e+00  0.0000000000000000e+00 0.0000000000000000e+00 0.0000000000000000e+00  1.9114122492745629e+00 1.9646410676434089e-02 0.0000000000000000e+00  7.7297999962263031e-01 2.7177119727711235e-01 0.0000000000000000e+00  1.3192029981051472e+00 -2.3483179272080859e-01 0.0000000000000000e+00  0.0000000000000000e+00 0.0000000000000000e+00 0.0000000000000000e+00  4.7214189569654452e-01 -4.5377783371431418e-02 0.0000000000000000e+00  8.2038329313033576e-01 -3.3494915678650378e-01 0.0000000000000000e+00  1.6506789213862239e+00 -5.0189249757977261e-01 0.0000000000000000e+00  1.7497207719947552e+00 1.7815490282762378e-01 0.0000000000000000e+00  9.7118822216240386e-01 4.7460536870816517e-01 0.0000000000000000e+00  1.2412703270795755e+00 3.7503349054198948e-01 0.0000000000000000e+00  1.4872943456527119e+00 -3.1943284094496638e-01 0.0000000000000000e+00  1.8976951460997082e+00 0.0000000000000000e+00 0.0000000000000000e+00  1.4432887998562989e+00 -2.5831248551255159e-01 0.0000000000000000e+00  1.7260697022637497e+00 -6.1173255277666050e-01 0.0000000000000000e+00  </DataArray> 
</PointData> 
</Piece>
</UnstructuredGrid>
</VTKFile>