<?xml version="1.0"?>
<VTKFile type="UnstructuredGrid"  version="0.1"  >
<UnstructuredGrid>
<Piece  NumberOfPoints="102" NumberOfCells="169">
<Points>
<DataArray  type="Float64"  NumberOfComponents="3"  format="ascii">0.5626584888143201 0.21 0  0.5633122436674589 0.1999814296467508 0  0.5571672426447437 0.2036011176410121 0  0.5626584888145268 0.19 0  0.5688286748170428 0.1961819304477386 0  0.5688286748170693 0.203818069552238 0  0.5571594006495384 0.1963685282145804 0  0.6 0.19 0  0.5925316977628897 0.19 0  0.5965740209510578 0.1927759733278094 0  0.5887803774232762 0.2001272386983733 0  0.5815926498168407 0.1966545283159175 0  0.5814408164431408 0.2041285596160068 0  0.5850633955257988 0.19 0  0.5775950932887378 0.19 0  0.5745072403740523 0.2002044435018727 0  0.5511891430099709 0.2001122610077113 0  0.5439877332217911 0.197091582686394 0  0.5439623148931173 0.2040856076781014 0  0.5365194309847112 0.1999999999999436 0  0.547721884340339 0.19 0  0.5402535821032429 0.19 0  0.5701267910514778 0.21 0  0.5701267910515998 0.19 0  0.574400031298126 0.1945411130107761 0  0.5887471324735476 0.1946190227059995 0  0.5551901865771842 0.21 0  0.5514560354586301 0.2056971942287897 0  0.5551901865773963 0.19 0  0.5743797868482748 0.2056178169806182 0  0.5511851248594936 0.1945772515115504 0  0.5365194309847112 0.1943028057711659 0  0.54772188434007 0.21 0  0.594380730180568 0.1966558399668133 0  0.5775950932886138 0.21 0  0.5327852798661811 0.19 0  0.6 0.1950000000000217 0  0.6244559818022579 0.1024805481876779 0  0.6331542554485198 0.1311064488920115 0  0.604876951083344 0.1323679928240978 0  0.5950070799606315 0.1111116928105405 0  0.5805147821309363 0.1750906865638377 0  0.5830971905392573 0.1610562557540074 0  0.5891905322413319 0.173297484523883 0  0.6385847074107548 0.1562173919888177 0  0.6641520523959832 0.1503720468916702 0  0.5857082964501902 0.1444062384003248 0  0.5690392421172527 0.1384821647678796 0  0.5733051421814971 0.1505504706653721 0  0.596265848881445 0.1672046255295837 0  0.5813292444072671 0.1834697536045245 0  0.5742993681899213 0.1835891178222343 0  0.5975491358239944 0.1534040596821995 0  0.5439877332217901 0.1676928600783786 0  0.5349004284018322 0.1565876018036672 0  0.5520209547307013 0.1576841814684212 0  0.6065875229028267 0.1922148945199381 0  0.5688911489504639 0.2221570651130901 0  0.5600714413167317 0.2168050759646857 0  0.5668496426355557 0.2152032773847839 0  0.5691769360607744 0.103623921999164 0  0.5817033662356486 0.1258684224449203 0  0.5656709189996393 0.1218263852353965 0  0.5666635607831564 0.161267807310367 0  0.5731424580414761 0.1690378585407531 0  0.5588244563271773 0.225349035787779 0  0.5519051872593019 0.2166420053265535 0  0.59743928374328 0.184845006919697 0  0.6044284617508302 0.1869248475987405 0  0.5701061294197327 0.1769562172296277 0  0.5448392573395288 0.1456266733529302 0  0.560873207311089 0.1493935172983297 0  0.6153880197825543 0.1501582873444675 0  0.605300577487017 0.1810288040931519 0  0.5966020906539898 0.1778579871513863 0  0.595034110037278 0.08371649311769892 0  0.6580228992389956 0.1177787934340178 0  0.5536582001352554 0.1343709232030346 0  0.5595716197895517 0.176498756977387 0  0.566392639933061 0.1840461062417861 0  0.6083886978654316 0.1626240187349565 0  0.5888145049962641 0.182376060046032 0  0.559009501696121 0.184247465949259 0  0.6154136810599321 0.175174545882801 0  0.6039303205755 0.1726140165641641 0  0.6229518475759098 0.1637562961874416 0  0.5366299525895074 0.1825690825227473 0  0.5514474833664602 0.1826065372792922 0  0.6341710204839701 0.1765827244303529 0  0.6209583882721262 0.1847010880111589 0  0.5653857196022115 0.1707921017691255 0  0.5316967135713353 0.1673421178078786 0  0.5562468381785084 0.1675066640297715 0  0.5439877332217904 0.1783210023422619 0  0.5371890579013414 0.1744210598886847 0  0.5509385065020694 0.1745004300116409 0  0.5294745265341012 0.1761054820336709 0  0.5740261188292279 0.2158012409855351 0  0.5439877332217911 0.1852618121745313 0  0.5666194772443838 0.07265723178580256 0  0.5932743238853959 0.04945528001359441 0  0.6112872589661165 0.1855979267337469 0  </DataArray>
</Points>
<Cells>
<DataArray  type="UInt32"  Name="connectivity"  format="ascii">0 1 2  3 1 4  0 1 5  3 1 6  7 8 9  10 11 12  13 14 11  15 11 12  16 17 18  19 17 18  20 21 17  0 22 5  23 3 4  14 11 24  13 11 25  26 0 2  15 11 24  10 11 25  16 18 27  3 28 6  15 12 29  20 17 30  21 17 31  16 17 30  19 17 31  16 2 6  1 2 6  32 18 27  15 4 5  1 4 5  8 33 9  34 12 29  16 6 30  8 13 25  14 23 24  22 34 29  32 26 27  28 20 30  21 35 31  36 33 9  28 6 30  16 2 27  26 2 27  7 36 9  8 33 25  22 5 29  23 4 24  10 33 25  15 4 24  15 5 29  37 38 39  37 40 39  41 42 43  44 38 45  46 47 48  49 42 43  41 50 51  46 39 52  53 54 55  7 36 56  57 58 59  60 61 62  63 42 64  65 58 66  60 40 61  7 67 68  41 69 51  70 55 71  72 39 52  73 67 68  65 57 58  74 73 67  37 40 75  41 42 64  76 38 45  70 77 71  78 69 79  46 47 61  60 40 75  37 76 38  72 80 52  41 81 50  78 82 79  63 42 48  72 38 39  70 54 55  44 72 38  8 13 81  83 84 80  26 0 58  47 77 71  7 8 67  44 72 85  46 39 61  21 35 86  28 20 87  83 88 89  49 74 43  41 81 43  8 81 67  41 69 64  78 69 90  53 54 91  53 55 92  78 87 82  49 42 52  13 14 50  83 80 85  7 56 68  3 28 82  46 42 48  49 74 84  13 81 50  74 73 84  26 58 66  32 26 66  0 58 59  83 88 85  63 55 92  28 87 82  53 93 94  53 93 95  96 86 94  23 3 79  74 81 67  22 34 97  78 87 95  21 86 98  20 87 98  14 23 51  60 75 99  49 84 80  53 94 91  0 22 59  83 73 84  53 95 92  49 80 52  40 39 61  14 50 51  74 81 43  3 82 79  78 92 90  100 75 99  63 92 90  23 79 51  22 97 59  63 55 71  20 21 98  47 61 62  46 42 52  93 86 94  83 73 101  93 87 95  96 94 91  93 86 98  44 88 85  93 87 98  56 68 101  78 95 92  47 62 77  83 89 101  63 48 71  57 97 59  69 79 51  72 80 85  69 64 90  47 48 71  63 64 90  73 68 101  </DataArray>
<DataArray  type="UInt32"  Name="offsets"  format="ascii">3 6 9 12 15 18 21 24 27 30 33 36 39 42 45 48 51 54 57 60 63 66 69 72 75 78 81 84 87 90 93 96 99 102 105 108 111 114 117 120 123 126 129 132 135 138 141 144 147 150 153 156 159 162 165 168 171 174 177 180 183 186 189 192 195 198 201 204 207 210 213 216 219 222 225 228 231 234 237 240 243 246 249 252 255 258 261 264 267 270 273 276 279 282 285 288 291 294 297 300 303 306 309 312 315 318 321 324 327 330 333 336 339 342 345 348 351 354 357 360 363 366 369 372 375 378 381 384 387 390 393 396 399 402 405 408 411 414 417 420 423 426 429 432 435 438 441 444 447 450 453 456 459 462 465 468 471 474 477 480 483 486 489 492 495 498 501 504 507 </DataArray>
<DataArray  type="UInt8"  Name="types"  format="ascii">5 5 5 5 5 5 5 5 5 5 5 5 5 5 5 5 5 5 5 5 5 5 5 5 5 5 5 5 5 5 5 5 5 5 5 5 5 5 5 5 5 5 5 5 5 5 5 5 5 5 5 5 5 5 5 5 5 5 5 5 5 5 5 5 5 5 5 5 5 5 5 5 5 5 5 5 5 5 5 5 5 5 5 5 5 5 5 5 5 5 5 5 5 5 5 5 5 5 5 5 5 5 5 5 5 5 5 5 5 5 5 5 5 5 5 5 5 5 5 5 5 5 5 5 5 5 5 5 5 5 5 5 5 5 5 5 5 5 5 5 5 5 5 5 5 5 5 5 5 5 5 5 5 5 5 5 5 5 5 5 5 5 5 5 5 5 5 5 5 </DataArray>
</Cells>
<PointData  Vectors="f_43-0"> 
<DataArray  type="Float64"  Name="f_43-0"  NumberOfComponents="3" format="ascii">-3.1722262494700943e-04 1.5274807514558636e-03 0.0000000000000000e+00  -1.6905895003657321e-04 1.5328056164195646e-03 0.0000000000000000e+00  -2.2170791099154790e-04 1.4436694945847909e-03 0.0000000000000000e+00  -2.1982067772035502e-05 1.5191384691626319e-03 0.0000000000000000e+00  -1.1333896579743022e-04 1.6130387735541760e-03 0.0000000000000000e+00  -2.2617066903891095e-04 1.6158801439568203e-03 0.0000000000000000e+00  -1.1522681271716688e-04 1.4402224429928957e-03 0.0000000000000000e+00  -2.0778845668038970e-05 2.0738280452387223e-03 0.0000000000000000e+00  -2.1243243712313049e-05 1.9633973076693453e-03 0.0000000000000000e+00  -6.1725829413107351e-05 2.0239846665576428e-03 0.0000000000000000e+00  -1.7117877758851381e-04 1.9099839584581085e-03 0.0000000000000000e+00  -1.2027379919474747e-04 1.8025310725653966e-03 0.0000000000000000e+00  -2.3094747917382755e-04 1.8023960408206858e-03 0.0000000000000000e+00  -2.1769583997404537e-05 1.8523257062715928e-03 0.0000000000000000e+00  -2.2124520614433695e-05 1.7412221076160005e-03 0.0000000000000000e+00  -1.7289807723237869e-04 1.6985865469187967e-03 0.0000000000000000e+00  -1.6934398381378090e-04 1.3538293527179128e-03 0.0000000000000000e+00  -1.2372539340930504e-04 1.2461925627042256e-03 0.0000000000000000e+00  -2.2590782876780221e-04 1.2498335590345046e-03 0.0000000000000000e+00  -1.6413643063371028e-04 1.1384485935441553e-03 0.0000000000000000e+00  -2.0735232369590147e-05 1.2976778224638374e-03 0.0000000000000000e+00  -1.9791141387940226e-05 1.1875277215147660e-03 0.0000000000000000e+00  -3.1794715422225390e-04 1.6373814904178108e-03 0.0000000000000000e+00  -2.2198063440549343e-05 1.6301454029967605e-03 0.0000000000000000e+00  -8.9209113815712584e-05 1.6951430851152125e-03 0.0000000000000000e+00  -8.9723131998805910e-05 1.9082278492905864e-03 0.0000000000000000e+00  -3.1594714981485449e-04 1.4177921850478913e-03 0.0000000000000000e+00  -2.5152402853386737e-04 1.3606867010151568e-03 0.0000000000000000e+00  -2.1482088164084379e-05 1.4082773655535196e-03 0.0000000000000000e+00  -2.5306813559457215e-04 1.6985259527103824e-03 0.0000000000000000e+00  -8.8187217598866065e-05 1.3510404316095235e-03 0.0000000000000000e+00  -8.1609877899731126e-05 1.1350266752509898e-03 0.0000000000000000e+00  -3.1403629935338102e-04 1.3084224164548242e-03 0.0000000000000000e+00  -1.1918558445537352e-04 1.9922673246558008e-03 0.0000000000000000e+00  -3.1817338472407583e-04 1.7474204098392064e-03 0.0000000000000000e+00  -1.8690117102025599e-05 1.0780282390873864e-03 0.0000000000000000e+00  -9.4075684631427460e-05 2.0750075935996597e-03 0.0000000000000000e+00  2.7783995885729156e+00 2.4675868116301128e-01 0.0000000000000000e+00  2.9869611621914260e+00 2.9126813275449270e-01 0.0000000000000000e+00  3.0194773842706133e+00 3.3653099228558980e-01 0.0000000000000000e+00  2.9414899758775368e+00 3.1379881662110831e-01 0.0000000000000000e+00  9.6646551363088140e-01 1.2489164837651864e-01 0.0000000000000000e+00  1.9514933436361532e+00 2.7230333798936912e-01 0.0000000000000000e+00  1.1834734527160198e+00 1.5487479802350979e-01 0.0000000000000000e+00  2.4995328067771712e+00 2.8318650540743656e-01 0.0000000000000000e+00  2.7460265930062695e+00 2.5718491013312628e-01 0.0000000000000000e+00  2.8020281497233945e+00 3.5938081139642242e-01 0.0000000000000000e+00  2.9356386971377892e+00 3.9610258764814238e-01 0.0000000000000000e+00  2.4993708703216821e+00 3.4986432798175077e-01 0.0000000000000000e+00  1.6585323641070873e+00 2.2686274888993871e-01 0.0000000000000000e+00  4.4608287063819990e-01 3.5782659113192887e-02 0.0000000000000000e+00  3.7889090431210831e-01 3.2245742825614709e-02 0.0000000000000000e+00  2.4867606086879568e+00 3.2215291429934551e-01 0.0000000000000000e+00  1.0723717125034282e+00 2.1137162877550314e-01 0.0000000000000000e+00  1.8305046547697887e+00 3.3671405849260666e-01 0.0000000000000000e+00  1.9104609153274332e+00 3.1701072263122354e-01 0.0000000000000000e+00  9.1852766331556771e-02 3.6037972590602825e-02 0.0000000000000000e+00  6.0549672137490607e-01 -8.4685855604300211e-02 0.0000000000000000e+00  2.4170102660225073e-01 -3.1774360787723686e-02 0.0000000000000000e+00  2.2497136681992908e-01 -1.9074137736362160e-02 0.0000000000000000e+00  2.9291201828763187e+00 3.3754337784944877e-01 0.0000000000000000e+00  3.0588902292034401e+00 3.6863164772591794e-01 0.0000000000000000e+00  3.0805117233729424e+00 3.8818547162593753e-01 0.0000000000000000e+00  1.7912704767826768e+00 2.7510559411270646e-01 0.0000000000000000e+00  1.3018908952927786e+00 1.9239951427803534e-01 0.0000000000000000e+00  6.7901542584937313e-01 -1.2145127984397026e-01 0.0000000000000000e+00  1.6380876299000957e-01 -2.9993080671224647e-02 0.0000000000000000e+00  4.9811720755914590e-01 6.0567432610934294e-02 0.0000000000000000e+00  3.8360815903438555e-01 1.0248695674854248e-01 0.0000000000000000e+00  7.3227653707134321e-01 1.0051595835457922e-01 0.0000000000000000e+00  2.6063965856711286e+00 4.1169891299482342e-01 0.0000000000000000e+00  2.4926304060310356e+00 3.7054548427495249e-01 0.0000000000000000e+00  2.6828712936659516e+00 3.2001404478634060e-01 0.0000000000000000e+00  8.3114399269070416e-01 1.3777616871852374e-01 0.0000000000000000e+00  9.6518592864836672e-01 1.2241685603780653e-01 0.0000000000000000e+00  2.6028278257135651e+00 2.4270821788881314e-01 0.0000000000000000e+00  2.8681155386351129e+00 2.1776173530420112e-01 0.0000000000000000e+00  3.0105713522459210e+00 4.2555349713727353e-01 0.0000000000000000e+00  6.4217329438066739e-01 1.0570214643009346e-01 0.0000000000000000e+00  2.9036797677473564e-01 2.7984051107478057e-02 0.0000000000000000e+00  2.0391982867725336e+00 2.7368833896033734e-01 0.0000000000000000e+00  5.8533872625419714e-01 5.1674810441334769e-02 0.0000000000000000e+00  2.2315783429745983e-01 2.6725762269931574e-02 0.0000000000000000e+00  1.2898719139328958e+00 1.9884106317072101e-01 0.0000000000000000e+00  1.3711594577795401e+00 1.9410534845378602e-01 0.0000000000000000e+00  2.0501491046975100e+00 2.6818035381860728e-01 0.0000000000000000e+00  9.9656572848613692e-02 3.9428406026667480e-02 0.0000000000000000e+00  2.3154174875553840e-01 4.0089059320215947e-02 0.0000000000000000e+00  1.3228177014933018e+00 1.9972596397778425e-01 0.0000000000000000e+00  6.8345516242339688e-01 1.4392148499570040e-01 0.0000000000000000e+00  1.0908754057484229e+00 1.7205585097853665e-01 0.0000000000000000e+00  9.5232358607479395e-01 2.1406114371724128e-01 0.0000000000000000e+00  1.2270885713407771e+00 2.1213505271330116e-01 0.0000000000000000e+00  3.6051430495892667e-01 8.4027785673987956e-02 0.0000000000000000e+00  5.1197684553192768e-01 1.2904443391385800e-01 0.0000000000000000e+00  6.6940789901717634e-01 1.2895924154886634e-01 0.0000000000000000e+00  3.1782053687375145e-01 1.0701535580540927e-01 0.0000000000000000e+00  3.0988966002311263e-01 -2.2929841947751311e-02 0.0000000000000000e+00  7.7631962979421723e-02 1.8963538827701958e-02 0.0000000000000000e+00  2.5190501610064189e+00 2.5327834849380393e-01 0.0000000000000000e+00  1.9160325796128992e+00 1.3663489046666027e-01 0.0000000000000000e+00  5.4075924611568871e-01 1.2753222395802913e-01 0.0000000000000000e+00  </DataArray> 
</PointData> 
</Piece>
</UnstructuredGrid>
</VTKFile>