<?xml version="1.0"?>
<VTKFile type="UnstructuredGrid"  version="0.1"  >
<UnstructuredGrid>
<Piece  NumberOfPoints="103" NumberOfCells="170">
<Points>
<DataArray  type="Float64"  NumberOfComponents="3"  format="ascii">0 0.3514285714286952 0  0.03215830272795324 0.3311110896359255 0  0.02400550655420258 0.3538155845945724 0  0.1521457199348437 0.2144902684393899 0  0.1547844879126531 0.221343792228163 0  0.1460074103989341 0.2155962236814484 0  0 0.3221428571430699 0  0.1022962111550141 0.273832470550381 0  0.1121786756446853 0.257597694764058 0  0.1185619469878228 0.2730177051871591 0  0.05939492550527375 0.3149957962361826 0  0.03411173555592004 0.3013214948275056 0  0.1503920612246686 0.252658552798053 0  0.1407371787724462 0.2442700623456801 0  0.1431093770171943 0.2599228455937608 0  0.09191660917863548 0.3399083220637153 0  0.1133943915886014 0.3302098901172357 0  0.1085927601152855 0.3576703429582752 0  0.1291780217515827 0.2400382025520897 0  0.1325512871714925 0.2548933203634119 0  0.06140001986584975 0.41 0  0.08484979611354741 0.3801877867628078 0  0.05922009696123734 0.3774661510110062 0  0.1314207338941352 0.2277905748945162 0  0.1208839583881551 0.2181173442085023 0  0.1226326835593179 0.232510509637589 0  0.09380266644077194 0.2576101652245613 0  0.1315669208937715 0.2153401624373302 0  0.0655461589766832 0.3354809920423228 0  0.132972307375135 0.2702075053542861 0  0.1310410255455362 0.2846992571580754 0  0.05202618668915951 0.3533574174069209 0  0.0341778808147269 0.3756898840960821 0  0.1452227811648972 0.2894657338151946 0  0.1613699074131162 0.2874965309748423 0  0.1497954449456231 0.3068853213507886 0  0.1440834152269613 0.2215292013094449 0  0.1427902997716637 0.232150825925387 0  0.1544083940701868 0.2357510323977007 0  0.1491192377089382 0.242360482241113 0  0.1502092543645781 0.2281484929999839 0  0 0.3807142857143437 0  0.1362495245357279 0.2216212078679356 0  0.1307646098417589 0.3010050716147269 0  0.1571318226843289 0.245420672996831 0  0.1664692005849321 0.2475709156417281 0  0.1604617194638936 0.2557893928243108 0  0.1550656232429279 0.2649227029563504 0  0.1583987151778488 0.2277368545647528 0  0.1629104300036858 0.2335315343742052 0  0.1123698019379044 0.2058991360802581 0  0.09921229729781815 0.216694589313852 0  0.1099554730833504 0.2189591019945387 0  0.04764878584873936 0.2783518915062873 0  0.02152627632804056 0.2799148982921386 0  0.1682222986671726 0.2386028198193036 0  0.1742197252833576 0.2428413052501257 0  0.1704873609912336 0.2583583661241701 0  0 0.29285714285744 0  0.01744870257335064 0.3130375866803607 0  0.03317213267821684 0.2576605437337542 0  0.08173043279897278 0.3240331352477369 0  0.1154525741111949 0.2885583797282378 0  0.1230762637185412 0.2499754423532209 0  0.1505393388476328 0.2073241380633295 0  0.1411840007379324 0.2116418969121702 0  0.09198816075892419 0.2415871005044956 0  0.07716692921624396 0.2463138536171241 0  0.1461228744239319 0.2700598172698123 0  0 0.2635714285718054 0  0.1752851331147261 0.2508158313127855 0  0.0844877739943079 0.2754278344382655 0  0.07558403699563009 0.2617898205222132 0  0.114265829400523 0.2274814703880861 0  0.0206009415950734 0.3930565358299628 0  0.07847443385504081 0.3566824448208936 0  0.07646641941334627 0.2901165423065792 0  0.09694893303991545 0.2918649843860019 0  0.08032811137534199 0.3068839858890652 0  0.09752865082683917 0.3073326190116618 0  0.1031728984437735 0.2318497950763309 0  0.05856578271688782 0.295628513006081 0  0.1125187550934686 0.3075252986550676 0  0.09922070399794995 0.322662239561371 0  0.1618784257508376 0.2400587086087321 0  0.05506284017382649 0.2425906156552861 0  0.05876177350501315 0.2607579702960333 0  0.1358250422386446 0.2356584720209315 0  0.1239298454268555 0.2616776157580057 0  0.04263766443679855 0.3932630345153014 0  0.1147948284867253 0.2412597685036574 0  0.08319468457824891 0.2132940804249223 0  0.07392371664175142 0.2310989703896346 0  0.09023810730875097 0.2272487027068034 0  0.1416315037575542 0.2787693322658609 0  0.1298722944302657 0.3189004895954476 0  0.1028747054530789 0.2468430767368829 0  0.1632849702488283 0.2726003915760372 0  0.1528547616279626 0.2778511520150422 0  0 0.41 0  0.03015443760436654 0.41 0  0.06676399188859611 0.2764140668439541 0  0.1647287152160364 0.2637534120846467 0  </DataArray>
</Points>
<Cells>
<DataArray  type="UInt32"  Name="connectivity"  format="ascii">0 1 2  3 4 5  0 6 1  7 8 9  10 1 11  12 13 14  15 16 17  18 19 13  20 21 22  23 24 25  7 8 26  27 23 24  10 1 28  29 9 30  31 32 2  33 34 35  4 36 5  31 1 2  37 38 39  19 13 14  4 36 40  41 32 2  31 1 28  37 36 42  43 33 30  44 45 46  12 14 47  48 49 38  50 51 52  53 11 54  55 56 45  57 45 46  58 11 54  37 38 40  58 11 59  29 19 14  12 44 46  53 60 54  15 61 28  6 1 59  7 62 9  18 19 63  64 65 5  37 23 42  66 26 67  37 13 39  29 68 14  41 0 2  31 32 22  69 60 54  36 65 5  43 33 35  57 45 70  7 26 71  72 26 67  73 24 25  72 26 71  41 32 74  12 46 47  15 28 75  48 38 40  62 9 30  76 77 78  64 3 5  43 62 30  79 77 78  36 65 42  37 36 40  68 14 47  56 45 70  73 80 52  7 62 77  53 11 81  79 82 83  49 38 84  85 60 86  10 11 81  76 77 71  4 48 40  55 45 84  37 23 87  27 23 42  29 19 88  16 82 83  20 22 89  18 90 25  18 90 63  12 44 39  37 13 87  7 77 71  53 60 86  91 92 93  43 62 82  51 80 52  29 68 94  72 67 86  66 92 93  21 17 75  15 16 83  43 35 95  85 67 86  27 65 42  73 90 80  16 82 95  15 17 75  73 90 25  12 13 39  91 51 93  66 92 67  18 23 87  58 69 54  43 82 95  44 38 84  44 45 84  1 11 59  6 58 59  18 13 87  8 90 63  8 90 96  62 77 82  76 81 78  85 92 67  44 38 39  97 34 98  8 26 96  10 81 78  97 98 47  18 23 25  68 98 47  29 9 88  31 28 75  31 22 75  99 100 74  99 41 74  79 77 82  79 61 78  19 63 88  79 61 83  20 100 89  51 80 93  29 30 94  8 9 88  76 81 101  21 22 75  49 55 84  57 46 102  10 61 78  90 80 96  33 34 98  66 26 96  68 98 94  15 61 83  10 61 28  33 30 94  8 63 88  53 81 101  50 24 52  32 89 74  66 80 93  100 89 74  66 80 96  33 98 94  32 22 89  73 24 52  76 71 101  72 86 101  46 47 102  97 47 102  72 71 101  53 86 101  </DataArray>
<DataArray  type="UInt32"  Name="offsets"  format="ascii">3 6 9 12 15 18 21 24 27 30 33 36 39 42 45 48 51 54 57 60 63 66 69 72 75 78 81 84 87 90 93 96 99 102 105 108 111 114 117 120 123 126 129 132 135 138 141 144 147 150 153 156 159 162 165 168 171 174 177 180 183 186 189 192 195 198 201 204 207 210 213 216 219 222 225 228 231 234 237 240 243 246 249 252 255 258 261 264 267 270 273 276 279 282 285 288 291 294 297 300 303 306 309 312 315 318 321 324 327 330 333 336 339 342 345 348 351 354 357 360 363 366 369 372 375 378 381 384 387 390 393 396 399 402 405 408 411 414 417 420 423 426 429 432 435 438 441 444 447 450 453 456 459 462 465 468 471 474 477 480 483 486 489 492 495 498 501 504 507 510 </DataArray>
<DataArray  type="UInt8"  Name="types"  format="ascii">5 5 5 5 5 5 5 5 5 5 5 5 5 5 5 5 5 5 5 5 5 5 5 5 5 5 5 5 5 5 5 5 5 5 5 5 5 5 5 5 5 5 5 5 5 5 5 5 5 5 5 5 5 5 5 5 5 5 5 5 5 5 5 5 5 5 5 5 5 5 5 5 5 5 5 5 5 5 5 5 5 5 5 5 5 5 5 5 5 5 5 5 5 5 5 5 5 5 5 5 5 5 5 5 5 5 5 5 5 5 5 5 5 5 5 5 5 5 5 5 5 5 5 5 5 5 5 5 5 5 5 5 5 5 5 5 5 5 5 5 5 5 5 5 5 5 5 5 5 5 5 5 5 5 5 5 5 5 5 5 5 5 5 5 5 5 5 5 5 5 </DataArray>
</Cells>
<PointData  Vectors="f_43-0"> 
<DataArray  type="Float64"  Name="f_43-0"  NumberOfComponents="3" format="ascii">1.2829627934329657e+00 0.0000000000000000e+00 0.0000000000000000e+00  1.6447758496304521e+00 1.1347104199427818e-01 0.0000000000000000e+00  1.2473844197533250e+00 5.8823694841901711e-02 0.0000000000000000e+00  0.0000000000000000e+00 0.0000000000000000e+00 0.0000000000000000e+00  0.0000000000000000e+00 0.0000000000000000e+00 0.0000000000000000e+00  6.6317482706760078e-01 1.1270002202862692e+00 0.0000000000000000e+00  1.7640738409703285e+00 0.0000000000000000e+00 0.0000000000000000e+00  2.3135289119432514e+00 6.0136702030725897e-01 0.0000000000000000e+00  2.2853356904485200e+00 7.2096114160583880e-01 0.0000000000000000e+00  2.3563143725127333e+00 7.8007453561002527e-01 0.0000000000000000e+00  1.9141957874763069e+00 2.4140769284577443e-01 0.0000000000000000e+00  2.0499609089927642e+00 1.4390912325203500e-01 0.0000000000000000e+00  2.4994882167170389e+00 1.5093430461569846e+00 0.0000000000000000e+00  2.1296195528303885e+00 1.3557163803762795e+00 0.0000000000000000e+00  2.4796982516371489e+00 1.2473639476760372e+00 0.0000000000000000e+00  1.6647431399172059e+00 2.9350892347399948e-01 0.0000000000000000e+00  1.9124430489714179e+00 4.1319609497663706e-01 0.0000000000000000e+00  1.4394918856808563e+00 2.5188712209806546e-01 0.0000000000000000e+00  2.0177307237737701e+00 1.0271059993982090e+00 0.0000000000000000e+00  2.3077931995417602e+00 1.0858966069345932e+00 0.0000000000000000e+00  0.0000000000000000e+00 0.0000000000000000e+00 0.0000000000000000e+00  8.8852167086111555e-01 1.0513848409153355e-01 0.0000000000000000e+00  8.5273700390854723e-01 8.7669658485081542e-02 0.0000000000000000e+00  1.6717216259854333e+00 9.4234427506954532e-01 0.0000000000000000e+00  1.7032729666592579e+00 4.9025773096663261e-01 0.0000000000000000e+00  1.9193718971902820e+00 7.9490438456576240e-01 0.0000000000000000e+00  2.3035770583606072e+00 5.0652048221321233e-01 0.0000000000000000e+00  1.3454370066558068e+00 6.2257911786822484e-01 0.0000000000000000e+00  1.6386381771183645e+00 2.2143345381451354e-01 0.0000000000000000e+00  2.4450195067274292e+00 9.7797511941379722e-01 0.0000000000000000e+00  2.4385453005007824e+00 8.1898721889390502e-01 0.0000000000000000e+00  1.3035914665248141e+00 1.3667706028461366e-01 0.0000000000000000e+00  8.3377870310606317e-01 5.9279996839430131e-02 0.0000000000000000e+00  2.5642301771075031e+00 8.7320010189314767e-01 0.0000000000000000e+00  2.7840329032424034e+00 9.6127728619043862e-01 0.0000000000000000e+00  2.4651362684492484e+00 7.0949695950168923e-01 0.0000000000000000e+00  1.1013675367607767e+00 1.2453649162190357e+00 0.0000000000000000e+00  1.6691462049197958e+00 1.4448208785484493e+00 0.0000000000000000e+00  1.8369297617746261e+00 2.0118959085133312e+00 0.0000000000000000e+00  2.1818671866079851e+00 1.6804478770313784e+00 0.0000000000000000e+00  1.3538468229348650e+00 1.8331163339536514e+00 0.0000000000000000e+00  6.9493817977614369e-01 0.0000000000000000e+00 0.0000000000000000e+00  1.3802294504443875e+00 9.7059930702065400e-01 0.0000000000000000e+00  2.3566968915269357e+00 6.8308838787281423e-01 0.0000000000000000e+00  2.4480934190776846e+00 1.9007265242530451e+00 0.0000000000000000e+00  2.7683002083410888e+00 2.0102145233668050e+00 0.0000000000000000e+00  2.7993360846731314e+00 1.6225192057830420e+00 0.0000000000000000e+00  2.7346177400561991e+00 1.3334074876775723e+00 0.0000000000000000e+00  0.0000000000000000e+00 0.0000000000000000e+00 0.0000000000000000e+00  0.0000000000000000e+00 0.0000000000000000e+00 0.0000000000000000e+00  1.8038723965236474e+00 1.1778935758588191e-01 0.0000000000000000e+00  2.1045587859130128e+00 2.3643731900803630e-01 0.0000000000000000e+00  1.9307696751402916e+00 3.7962961084368180e-01 0.0000000000000000e+00  2.2757844129013050e+00 2.1073590487792818e-01 0.0000000000000000e+00  2.2669354152932244e+00 9.1878843992403578e-02 0.0000000000000000e+00  0.0000000000000000e+00 0.0000000000000000e+00 0.0000000000000000e+00  0.0000000000000000e+00 0.0000000000000000e+00 0.0000000000000000e+00  3.1562809973286283e+00 1.5955053922446714e+00 0.0000000000000000e+00  2.1382713223887881e+00 0.0000000000000000e+00 0.0000000000000000e+00  1.8979978979025856e+00 7.1640962759378909e-02 0.0000000000000000e+00  2.4303525152984156e+00 1.2206365671570146e-01 0.0000000000000000e+00  1.8537905154208887e+00 3.1667675646861537e-01 0.0000000000000000e+00  2.3208198399815960e+00 6.5593538800133511e-01 0.0000000000000000e+00  2.2169665234861369e+00 9.0375835865004739e-01 0.0000000000000000e+00  0.0000000000000000e+00 0.0000000000000000e+00 0.0000000000000000e+00  7.9834866745351007e-01 7.0297532091680770e-01 0.0000000000000000e+00  2.2739750152838236e+00 4.2475572658886401e-01 0.0000000000000000e+00  2.3626929947183766e+00 3.3118575194302641e-01 0.0000000000000000e+00  2.5990583631837909e+00 1.1324199197218308e+00 0.0000000000000000e+00  2.4055552376882972e+00 0.0000000000000000e+00 0.0000000000000000e+00  3.0237600580941857e+00 1.6608343105429151e+00 0.0000000000000000e+00  2.2874163647889723e+00 4.4007591086488518e-01 0.0000000000000000e+00  2.3418571790918579e+00 3.7342419966001683e-01 0.0000000000000000e+00  1.9588201023226059e+00 5.7294235323108555e-01 0.0000000000000000e+00  4.2658681370178880e-01 1.4838705138404537e-02 0.0000000000000000e+00  1.3225927675786753e+00 1.9125857618301328e-01 0.0000000000000000e+00  2.1957078012302547e+00 3.7555302130387297e-01 0.0000000000000000e+00  2.2285696034632769e+00 5.0428223639109537e-01 0.0000000000000000e+00  2.0506638404160964e+00 3.6435679296699863e-01 0.0000000000000000e+00  2.1051243471354186e+00 4.5416371257321403e-01 0.0000000000000000e+00  2.1372452195245644e+00 4.6527271406419324e-01 0.0000000000000000e+00  2.1270065946620735e+00 2.6888454162787584e-01 0.0000000000000000e+00  2.1751992130730611e+00 5.3784711160045506e-01 0.0000000000000000e+00  1.9414919965045419e+00 3.9550582959508546e-01 0.0000000000000000e+00  2.2253917376844456e+00 2.0517389537383131e+00 0.0000000000000000e+00  2.4454651533910394e+00 1.9469550020899681e-01 0.0000000000000000e+00  2.3715840745448800e+00 2.5750156453444784e-01 0.0000000000000000e+00  1.8965435458268218e+00 1.2057984332021785e+00 0.0000000000000000e+00  2.3381289947788626e+00 8.9129058283405205e-01 0.0000000000000000e+00  4.6178661862708870e-01 2.5152255625561760e-02 0.0000000000000000e+00  2.1232261132624464e+00 7.1953194475949966e-01 0.0000000000000000e+00  2.2708410055917239e+00 1.1759240745242165e-01 0.0000000000000000e+00  2.3779191486679414e+00 2.2802081172398087e-01 0.0000000000000000e+00  2.2376106918126593e+00 3.1171667384363766e-01 0.0000000000000000e+00  2.5586712617914671e+00 9.7472222301216305e-01 0.0000000000000000e+00  2.1649336284225988e+00 5.4002126568726538e-01 0.0000000000000000e+00  2.2509079752508496e+00 5.8361326702711602e-01 0.0000000000000000e+00  2.9114142422133233e+00 1.2187334894282547e+00 0.0000000000000000e+00  2.7149574694195593e+00 1.0789248030627829e+00 0.0000000000000000e+00  0.0000000000000000e+00 0.0000000000000000e+00 0.0000000000000000e+00  0.0000000000000000e+00 0.0000000000000000e+00 0.0000000000000000e+00  2.2810119666103388e+00 3.2144906888960811e-01 0.0000000000000000e+00  2.9715177495394975e+00 1.4317521057720695e+00 0.0000000000000000e+00  </DataArray> 
</PointData> 
</Piece>
</UnstructuredGrid>
</VTKFile>