<?xml version="1.0"?>
<VTKFile type="UnstructuredGrid"  version="0.1"  >
<UnstructuredGrid>
<Piece  NumberOfPoints="100" NumberOfCells="168">
<Points>
<DataArray  type="Float64"  NumberOfComponents="3"  format="ascii">0.3535460261755617 0.19 0  0.3528922713220932 0.2000185703532356 0  0.3590076176283495 0.196411355804271 0  0.3473758401723931 0.1961819304478349 0  0.3535460261749672 0.21 0  0.3473758401724931 0.2038180695522752 0  0.3590471196690275 0.2036304442587945 0  0.3796850840047755 0.200000000000134 0  0.3871533862418661 0.2029084173136212 0  0.3871533862424271 0.1959250838464788 0  0.3650630746574081 0.199866017807523 0  0.3722167817676917 0.2029084173136195 0  0.372246743208829 0.1959123236376545 0  0.3274069683451451 0.2000000000000796 0  0.3348752705822316 0.202908417313609 0  0.3347912413592433 0.1959225448935183 0  0.3127789816668748 0.1998657885438805 0  0.3199386661080599 0.202908417313604 0  0.3199680582793816 0.1959123018030061 0  0.3417402379596385 0.1998691686391011 0  0.3684826306491596 0.21 0  0.3759509328862226 0.21 0  0.3311411194636928 0.21 0  0.3386094217007701 0.21 0  0.383419235123329 0.21 0  0.3908875373604028 0.21 0  0.3460777239384295 0.19 0  0.3460777239378666 0.21 0  0.3087362127527544 0.19 0  0.3012679105156187 0.19 0  0.3066757059912147 0.1964092924317024 0  0.361014328412667 0.19 0  0.3796850840055151 0.1943028057712579 0  0.3647484795312433 0.1943028057712484 0  0.3274069683455914 0.1943028057712305 0  0.3124703638713219 0.1943028057712193 0  0.3610143284120516 0.21 0  0.341834128962283 0.1943988119061815 0  0.3650260178642469 0.2054197153269502 0  0.3796850840047754 0.2056971942288865 0  0.3274069683451451 0.2056971942288527 0  0.341845332858566 0.2054104280253135 0  0.3908875373612097 0.19 0  0.3834192351240934 0.19 0  0.3759509328869369 0.19 0  0.3684826306498175 0.19 0  0.3386094217012945 0.19 0  0.3311411194641595 0.19 0  0.3236728172270245 0.19 0  0.3162045149898895 0.19 0  0.3655464778159961 0.1466879707354811 0  0.3738358170836363 0.1565872175614931 0  0.383930166391577 0.149077512173999 0  0.3418349201952718 0.1615259010424026 0  0.3538118084207602 0.155339561103512 0  0.3411001259021957 0.1498303228783227 0  0.3422976980851364 0.1814371791041619 0  0.3871183818181629 0.1813492091082587 0  0.3803545031770169 0.2233799225275491 0  0.3797734699465006 0.2157346552691785 0  0.3868315570898186 0.2161590584307608 0  0.3298647941762166 0.154951077946048 0  0.3304301052933576 0.1665413931712652 0  0.3527566348301668 0.1449455739485435 0  0.3342547353003448 0.176221364131867 0  0.3420590264647178 0.171174416987776 0  0.3125543224194783 0.1825714068210268 0  0.3272791508030818 0.1825813053721834 0  0.3572801772935104 0.2173273935815939 0  0.3722102571583817 0.2173806806735415 0  0.3647484950731696 0.1690362455853913 0  0.3534047339781095 0.1664079800909994 0  0.3646043070190422 0.1595814785132252 0  0.3573906953035386 0.1825704874733474 0  0.3721062650880237 0.1825704912629938 0  0.334769373574778 0.1838585991320073 0  0.3758459195692864 0.1665688727818971 0  0.3498118750569956 0.1834818329761723 0  0.3796850840055151 0.1834818329761566 0  0.350235271979906 0.176105405901683 0  0.3198867512741007 0.1691875758392534 0  0.3199291472277772 0.1784487091275169 0  0.3133418865444516 0.1745347694704089 0  0.3264689647572548 0.1745410252268062 0  0.3871533862426517 0.1622083790690482 0  0.30960746080092 0.166771572284543 0  0.3198495352051576 0.1594009174606977 0  0.3792616967340072 0.1761054533295981 0  0.3052148703289762 0.176135200920133 0  0.3050224637686886 0.1840003691157356 0  0.3647484799225001 0.1783360555704042 0  0.3580172190788822 0.1744509634985612 0  0.3714797435049115 0.1744509558619459 0  0.3716385577875085 0.2254972730720332 0  0.3870163828938027 0.1711802904735331 0  0.3497998287380586 0.2162289176852799 0  0.3199315490584526 0.1848904494130124 0  0.3647474910084925 0.215095947068514 0  0.3647484797606208 0.1848841839272463 0  0.364747590224077 0.2216658739063822 0  </DataArray>
</Points>
<Cells>
<DataArray  type="UInt32"  Name="connectivity"  format="ascii">0 1 2  0 1 3  4 1 5  4 1 6  7 8 9  10 11 12  13 14 15  16 17 18  13 17 18  19 14 15  7 11 12  20 21 11  22 23 14  24 25 8  0 26 3  27 4 5  28 29 30  31 0 2  7 9 32  10 12 33  13 15 34  16 18 35  13 18 34  7 12 32  4 36 6  19 15 37  20 11 38  21 11 39  10 11 38  24 8 39  22 14 40  7 8 39  7 11 39  13 17 40  13 14 40  23 14 41  19 14 41  42 43 9  44 45 12  46 47 15  48 49 18  10 2 6  1 2 6  44 12 32  43 9 32  45 12 33  47 15 34  49 18 35  48 18 34  1 5 3  19 5 3  46 15 37  10 6 38  26 46 37  23 27 41  43 44 32  45 31 33  36 20 38  21 24 39  47 48 34  49 28 35  36 6 38  10 2 33  31 2 33  16 30 35  28 30 35  26 3 37  27 5 41  19 5 41  19 3 37  50 51 52  53 54 55  26 46 56  42 43 57  58 59 60  53 61 62  54 55 63  64 62 65  53 62 65  49 28 66  47 48 67  4 36 68  20 21 69  70 71 72  31 0 73  44 45 74  46 56 75  70 76 72  26 56 77  53 54 71  43 57 78  58 69 59  79 73 77  80 81 82  80 81 83  84 51 76  64 67 75  80 85 86  87 74 78  53 61 55  80 62 86  88 66 89  79 56 65  64 56 65  70 90 91  70 90 92  58 69 93  79 71 65  84 51 52  87 57 94  27 4 95  28 29 89  46 47 75  88 66 82  64 67 83  21 24 59  0 26 77  79 73 91  70 91 71  43 44 78  54 71 72  70 92 76  28 66 89  87 74 92  51 76 72  87 76 94  47 67 75  4 68 95  21 69 59  0 73 77  79 56 77  44 74 78  61 62 86  53 71 65  49 66 96  64 56 75  87 57 78  48 67 96  36 68 97  20 69 97  31 73 98  45 74 98  24 25 60  84 76 94  50 54 72  50 51 72  88 85 82  24 59 60  81 66 82  80 85 82  81 67 83  50 54 63  79 91 71  99 69 93  64 62 83  80 62 83  87 92 76  90 73 91  90 74 92  81 66 96  81 67 96  48 49 96  99 68 97  36 20 97  99 69 97  45 31 98  90 73 98  90 74 98  </DataArray>
<DataArray  type="UInt32"  Name="offsets"  format="ascii">3 6 9 12 15 18 21 24 27 30 33 36 39 42 45 48 51 54 57 60 63 66 69 72 75 78 81 84 87 90 93 96 99 102 105 108 111 114 117 120 123 126 129 132 135 138 141 144 147 150 153 156 159 162 165 168 171 174 177 180 183 186 189 192 195 198 201 204 207 210 213 216 219 222 225 228 231 234 237 240 243 246 249 252 255 258 261 264 267 270 273 276 279 282 285 288 291 294 297 300 303 306 309 312 315 318 321 324 327 330 333 336 339 342 345 348 351 354 357 360 363 366 369 372 375 378 381 384 387 390 393 396 399 402 405 408 411 414 417 420 423 426 429 432 435 438 441 444 447 450 453 456 459 462 465 468 471 474 477 480 483 486 489 492 495 498 501 504 </DataArray>
<DataArray  type="UInt8"  Name="types"  format="ascii">5 5 5 5 5 5 5 5 5 5 5 5 5 5 5 5 5 5 5 5 5 5 5 5 5 5 5 5 5 5 5 5 5 5 5 5 5 5 5 5 5 5 5 5 5 5 5 5 5 5 5 5 5 5 5 5 5 5 5 5 5 5 5 5 5 5 5 5 5 5 5 5 5 5 5 5 5 5 5 5 5 5 5 5 5 5 5 5 5 5 5 5 5 5 5 5 5 5 5 5 5 5 5 5 5 5 5 5 5 5 5 5 5 5 5 5 5 5 5 5 5 5 5 5 5 5 5 5 5 5 5 5 5 5 5 5 5 5 5 5 5 5 5 5 5 5 5 5 5 5 5 5 5 5 5 5 5 5 5 5 5 5 5 5 5 5 5 5 </DataArray>
</Cells>
<PointData  Vectors="f_43-0"> 
<DataArray  type="Float64"  Name="f_43-0"  NumberOfComponents="3" format="ascii">6.9932935318332000e-06 -5.8949726065261592e-05 0.0000000000000000e+00  1.7778147713732401e-05 -6.3086567907799602e-05 0.0000000000000000e+00  1.4462063345328042e-05 -6.8147658851336359e-05 0.0000000000000000e+00  1.3060263055227700e-05 -5.5202421040400594e-05 0.0000000000000000e+00  2.8889621461271473e-05 -6.9123808143720938e-05 0.0000000000000000e+00  2.1054236138538531e-05 -5.9136499839968411e-05 0.0000000000000000e+00  2.2632541996212891e-05 -7.1823759981566400e-05 0.0000000000000000e+00  2.0702749858247109e-05 -9.4893110010774105e-05 0.0000000000000000e+00  2.5164221188937966e-05 -1.0592786779571051e-04 0.0000000000000000e+00  1.6073291289906556e-05 -1.0263892579185022e-04 0.0000000000000000e+00  1.9047808815123660e-05 -7.6887420994017694e-05 0.0000000000000000e+00  2.3518746014916306e-05 -8.7006771465103592e-05 0.0000000000000000e+00  1.5013930467198538e-05 -8.3640150143934427e-05 0.0000000000000000e+00  1.4145504549022175e-05 -3.7612072151109074e-05 0.0000000000000000e+00  1.8048447444094567e-05 -4.6089370365178954e-05 0.0000000000000000e+00  1.1428125209817352e-05 -4.2340682337485929e-05 0.0000000000000000e+00  1.1623158810940209e-05 -2.5436309045235727e-05 0.0000000000000000e+00  1.5319516210775172e-05 -3.2792973991662924e-05 0.0000000000000000e+00  9.6244473857562437e-06 -2.9039486344217256e-05 0.0000000000000000e+00  1.6142482883156111e-05 -5.1229604280792397e-05 0.0000000000000000e+00  3.1641422133122875e-05 -8.6172145962546982e-05 0.0000000000000000e+00  3.2866780461137768e-05 -9.5236880827037022e-05 0.0000000000000000e+00  2.4004316006031729e-05 -4.6620092696637412e-05 0.0000000000000000e+00  2.5735255289671168e-05 -5.3678674085175750e-05 0.0000000000000000e+00  3.3993234027442754e-05 -1.0463235231125432e-04 0.0000000000000000e+00  3.5021893403671120e-05 -1.1433442701746922e-04 0.0000000000000000e+00  6.5747234860803349e-06 -5.0857320840422715e-05 0.0000000000000000e+00  2.7363829282332568e-05 -6.1189035492059026e-05 0.0000000000000000e+00  4.0001546919654485e-06 -1.7311297880566195e-05 0.0000000000000000e+00  3.4016476962906339e-06 -1.2178707445997504e-05 0.0000000000000000e+00  8.1879481343070193e-06 -1.9111660083641603e-05 0.0000000000000000e+00  7.3745912918233672e-06 -6.7443253556785551e-05 0.0000000000000000e+00  1.3545988482051566e-05 -9.2215086334211993e-05 0.0000000000000000e+00  1.2535865850017314e-05 -7.3823374962292824e-05 0.0000000000000000e+00  9.1410385601958615e-06 -3.4653580157878473e-05 0.0000000000000000e+00  7.4550540729972647e-06 -2.2243083584029997e-05 0.0000000000000000e+00  3.0316268124515438e-05 -7.7459197901134572e-05 0.0000000000000000e+00  1.0691602802634795e-05 -4.8557308801275304e-05 0.0000000000000000e+00  2.5582111059806852e-05 -7.9665482539735996e-05 0.0000000000000000e+00  2.7926002614614627e-05 -9.7695640689725644e-05 0.0000000000000000e+00  1.9212241399038158e-05 -4.0761665384658502e-05 0.0000000000000000e+00  2.1752372202031160e-05 -5.4300524778513544e-05 0.0000000000000000e+00  8.5295153879616317e-06 -1.0495267834489434e-04 0.0000000000000000e+00  8.2990911648357001e-06 -9.5091476715693357e-05 0.0000000000000000e+00  8.0289814960336801e-06 -8.5537962233663399e-05 0.0000000000000000e+00  7.7204685710490666e-06 -7.6314303328459587e-05 0.0000000000000000e+00  6.1227199298706817e-06 -4.3189997314859673e-05 0.0000000000000000e+00  5.6379819902474964e-06 -3.5975074575275080e-05 0.0000000000000000e+00  5.1213571340248532e-06 -2.9238635813537660e-05 0.0000000000000000e+00  4.5747791063850290e-06 -2.3008234005391315e-05 0.0000000000000000e+00  1.9253508926836349e-01 4.5045690132534408e-03 0.0000000000000000e+00  1.8678416492815675e-01 2.6248801639399306e-03 0.0000000000000000e+00  1.9332400121599475e-01 2.7909194660931855e-03 0.0000000000000000e+00  1.7507319049079192e-01 4.6961049359315723e-03 0.0000000000000000e+00  1.8510126744663147e-01 4.5104242775627365e-03 0.0000000000000000e+00  1.8678883799232768e-01 7.5714874382806635e-03 0.0000000000000000e+00  9.5679325245532632e-02 5.5006625513096918e-04 0.0000000000000000e+00  9.9840342273743860e-02 1.0892555568063419e-04 0.0000000000000000e+00  1.3218703654220818e-01 -6.4020844622827890e-04 0.0000000000000000e+00  7.2719270900925420e-02 -2.2781844078554385e-04 0.0000000000000000e+00  7.7263156025753038e-02 -2.2397721033024556e-04 0.0000000000000000e+00  1.7977860835807483e-01 8.8118317797908682e-03 0.0000000000000000e+00  1.6212814628874209e-01 4.9152547721666847e-03 0.0000000000000000e+00  1.9152127549280940e-01 6.3939630822938331e-03 0.0000000000000000e+00  1.2832139524051578e-01 1.7412312861076679e-03 0.0000000000000000e+00  1.5183617387086829e-01 2.4084757539447419e-03 0.0000000000000000e+00  8.0451316355381011e-02 1.2275517108409515e-03 0.0000000000000000e+00  8.3924037816266256e-02 6.9164297931154724e-04 0.0000000000000000e+00  8.6714133824416895e-02 -3.8118130300681188e-04 0.0000000000000000e+00  8.8167161706920238e-02 -3.1165502013015062e-04 0.0000000000000000e+00  1.6265173373028100e-01 1.5568445313888317e-03 0.0000000000000000e+00  1.6801328936338975e-01 2.5516747950391628e-03 0.0000000000000000e+00  1.8213605652378564e-01 2.8595385224801538e-03 0.0000000000000000e+00  8.7645781881591750e-02 2.4160343960478856e-04 0.0000000000000000e+00  8.8594476085164672e-02 1.3015846145133679e-04 0.0000000000000000e+00  7.3646085474726397e-02 3.4515761421406960e-04 0.0000000000000000e+00  1.7068106244484815e-01 1.4308102469286674e-03 0.0000000000000000e+00  7.8734072313956210e-02 2.4866947814914162e-04 0.0000000000000000e+00  8.0495389166843387e-02 3.5528718898602292e-05 0.0000000000000000e+00  1.3189379255078840e-01 1.1211837991579846e-03 0.0000000000000000e+00  1.5120677342699371e-01 5.7704538299206999e-03 0.0000000000000000e+00  1.1182436402916121e-01 2.0995751077588533e-03 0.0000000000000000e+00  1.2915153509498215e-01 4.4581533964747266e-03 0.0000000000000000e+00  1.3431390681380734e-01 2.8144303441520950e-03 0.0000000000000000e+00  1.8073527130502243e-01 1.4675331095960935e-03 0.0000000000000000e+00  1.5211517347480219e-01 9.8259204195827801e-03 0.0000000000000000e+00  1.7095660935578932e-01 1.0114315831159973e-02 0.0000000000000000e+00  1.3495184785241052e-01 4.6620158652950922e-04 0.0000000000000000e+00  1.1739252862590474e-01 5.1038642839470539e-03 0.0000000000000000e+00  6.5973395344534488e-02 1.1340032113380443e-03 0.0000000000000000e+00  1.2050623380299696e-01 5.1349608281243443e-04 0.0000000000000000e+00  1.4120220264034983e-01 1.0646930320453703e-03 0.0000000000000000e+00  1.4269703100769690e-01 7.7265300027171851e-04 0.0000000000000000e+00  1.4245764062884025e-01 -9.6842921084145316e-04 0.0000000000000000e+00  1.5769719836778576e-01 7.3925310675914042e-04 0.0000000000000000e+00  7.5968477012759467e-02 -3.5899004575055694e-04 0.0000000000000000e+00  6.1445103968572008e-02 4.4348334960038482e-04 0.0000000000000000e+00  6.5433831212200061e-02 -2.1135747469711361e-04 0.0000000000000000e+00  6.5642850921669813e-02 5.3338520398470569e-05 0.0000000000000000e+00  1.2050171685737375e-01 -6.9145274991238648e-04 0.0000000000000000e+00  </DataArray> 
</PointData> 
</Piece>
</UnstructuredGrid>
</VTKFile>