<?xml version="1.0"?>
<VTKFile type="UnstructuredGrid"  version="0.1"  >
<UnstructuredGrid>
<Piece  NumberOfPoints="102" NumberOfCells="171">
<Points>
<DataArray  type="Float64"  NumberOfComponents="3"  format="ascii">0.476773013087985 0.1999999999998713 0  0.4693047108508938 0.1970915826863783 0  0.4693047108503577 0.2040749161535231 0  0.4917096175621762 0.1999999999998808 0  0.4842413153250809 0.1970915826863873 0  0.4842413153245942 0.2040749161535287 0  0.5066462220363641 0.199999999999908 0  0.4991779197992749 0.1970915826863902 0  0.4991779197988497 0.2040749161535382 0  0.5215828265105155 0.1999999999999228 0  0.5141145242734466 0.1970915826863843 0  0.5141145242731028 0.2040749161535395 0  0.5365194309847112 0.1999999999999436 0  0.5290511287476175 0.1970915826863981 0  0.5290511287473298 0.2040749161535501 0  0.5327852798661811 0.19 0  0.5253169776290537 0.19 0  0.5178486753919799 0.19 0  0.5103803731549078 0.19 0  0.4879754664436223 0.19 0  0.4805071642065402 0.19 0  0.502912070917822 0.19 0  0.4954437686807294 0.19 0  0.4767730130872753 0.2056971942287455 0  0.4917096175615203 0.2056971942287492 0  0.5066462220358396 0.2056971942287649 0  0.5215828265100828 0.2056971942287677 0  0.5365194309843644 0.2056971942287865 0  0.5439623148931173 0.2040856076781014 0  0.5365194309847112 0.1943028057711659 0  0.5215828265105155 0.1943028057711514 0  0.4767730130879849 0.1943028057711153 0  0.4917096175621761 0.1943028057711214 0  0.5066462220363641 0.1943028057711422 0  0.480507164205851 0.21 0  0.4879754664429498 0.21 0  0.5103803731544119 0.21 0  0.5178486753915261 0.21 0  0.5402535821029386 0.21 0  0.54772188434007 0.21 0  0.4954437686800938 0.21 0  0.502912070917267 0.21 0  0.5253169776286404 0.21 0  0.5327852798657868 0.21 0  0.4730388619686996 0.21 0  0.4991779197992711 0.167693385507626 0  0.4900906149793102 0.1565876018036352 0  0.5082652246192162 0.1565876018036352 0  0.499237761463083 0.2192785032300353 0  0.4993542269391089 0.2308107468212473 0  0.5064903940750056 0.2246838314870058 0  0.5123638022628456 0.2310955071885417 0  0.536567636007916 0.2275987754591341 0  0.5347760817351684 0.2414500964404198 0  0.5283542774025207 0.2302880001042248 0  0.5455709551586724 0.2324144452751203 0  0.546982877175164 0.2233942294772845 0  0.5365194309843644 0.2180863504285254 0  0.5444469726554123 0.2157339702670886 0  0.5588244563271773 0.225349035787779 0  0.5519051872593019 0.2166420053265535 0  0.5216178319364539 0.1813492122870838 0  0.5265047000024197 0.2223941974774756 0  0.5286910337265995 0.2154702409242758 0  0.5150278681324471 0.2228450308306156 0  0.5214285426002536 0.2161011329323836 0  0.4767730130872752 0.2184019876485795 0  0.5209814004512184 0.2362962593649592 0  0.5084573036363184 0.2395108277223441 0  0.553378981997341 0.2322691570724318 0  0.5504647692515866 0.2417078359721865 0  0.4910031975930484 0.2171006717137592 0  0.5075668509025225 0.2171084086245455 0  0.5143590539697885 0.2155988592715468 0  0.4917096175621761 0.1826726487251064 0  0.5066462220363641 0.1826726487251085 0  0.5208355992062484 0.2285465546466679 0  0.4767380076620556 0.1813492122870721 0  0.4842366479349569 0.1837683957184343 0  0.5141191916635692 0.1837683957184422 0  0.4867628426197099 0.1672556638427207 0  0.5290511287476175 0.1834818376483974 0  0.5115929969788211 0.1672556638427288 0  0.4841984187204001 0.2159109988582109 0  0.5294745265341012 0.1761054820336709 0  0.5366299525895074 0.1825690825227473 0  0.4842413153250809 0.1755365127551258 0  0.4923756029794709 0.2245693836696246 0  0.4869999746943883 0.2308048359320609 0  0.5141145242734466 0.1755365127551412 0  0.4846260107628763 0.2228898464509046 0  0.4767730130879849 0.1622083790703084 0  0.5215828265105156 0.1622083790703317 0  0.4991779197992725 0.1783172034453956 0  0.4923389098589435 0.1741809711526818 0  0.4767269250530047 0.1713973971258736 0  0.506016929739597 0.1741809711526895 0  0.5349004284018322 0.1565876018036672 0  0.5316967135713353 0.1673421178078786 0  0.5216289307659581 0.1713997813123399 0  0.4991779197992735 0.1849089375109228 0  0.5631143150331265 0.2366473934541688 0  </DataArray>
</Points>
<Cells>
<DataArray  type="UInt32"  Name="connectivity"  format="ascii">0 1 2  3 4 5  6 7 8  9 10 11  12 13 14  9 13 14  6 10 11  3 7 8  0 4 5  15 16 13  17 18 10  19 20 4  21 22 7  0 2 23  3 5 24  6 8 25  9 11 26  12 14 27  12 28 27  9 14 26  6 11 25  3 8 24  0 5 23  15 13 29  16 13 30  9 13 30  12 13 29  0 4 31  20 4 31  0 1 31  19 4 32  18 10 33  21 7 33  22 7 32  17 10 30  6 7 33  6 10 33  3 4 32  3 7 32  9 10 30  34 35 5  36 37 11  38 39 28  40 41 8  42 43 14  34 5 23  44 2 23  35 5 24  40 8 24  36 11 25  41 8 25  42 14 26  43 14 27  38 28 27  37 11 26  44 34 23  35 40 24  41 36 25  43 38 27  37 42 26  22 19 32  18 21 33  16 17 30  45 46 47  40 41 48  49 50 51  52 53 54  52 53 55  56 57 58  59 56 60  52 56 57  16 17 61  52 62 57  62 57 63  64 62 65  44 34 66  67 53 54  43 38 57  49 68 51  59 56 69  70 53 55  40 48 71  41 48 72  52 56 55  64 73 65  22 19 74  18 21 75  64 62 76  20 77 78  17 61 79  45 46 80  16 61 81  56 55 69  45 47 82  34 66 83  35 40 71  41 36 72  84 85 81  52 62 54  86 74 78  49 87 88  67 68 51  89 75 79  38 57 58  43 57 63  90 71 83  64 72 73  91 46 80  19 20 78  17 18 79  15 16 81  34 35 83  92 47 82  36 37 73  45 93 94  86 77 95  45 93 96  92 97 98  45 94 80  19 74 78  84 61 99  18 75 79  45 96 82  89 61 99  90 71 87  37 42 65  15 85 81  64 72 50  86 74 94  89 75 96  38 39 58  35 71 83  36 72 73  22 74 100  21 75 100  42 43 63  84 61 81  86 80 95  84 98 99  86 77 78  89 61 79  89 82 99  49 48 87  49 48 50  90 66 83  37 73 65  48 71 87  48 72 50  39 60 58  42 65 63  92 98 99  91 80 95  59 101 69  21 22 100  92 82 99  64 50 51  86 94 80  93 74 94  93 75 96  89 96 82  70 101 69  93 74 100  93 75 100  56 60 58  62 65 63  90 87 88  62 54 76  64 76 51  70 55 69  67 76 51  67 54 76  </DataArray>
<DataArray  type="UInt32"  Name="offsets"  format="ascii">3 6 9 12 15 18 21 24 27 30 33 36 39 42 45 48 51 54 57 60 63 66 69 72 75 78 81 84 87 90 93 96 99 102 105 108 111 114 117 120 123 126 129 132 135 138 141 144 147 150 153 156 159 162 165 168 171 174 177 180 183 186 189 192 195 198 201 204 207 210 213 216 219 222 225 228 231 234 237 240 243 246 249 252 255 258 261 264 267 270 273 276 279 282 285 288 291 294 297 300 303 306 309 312 315 318 321 324 327 330 333 336 339 342 345 348 351 354 357 360 363 366 369 372 375 378 381 384 387 390 393 396 399 402 405 408 411 414 417 420 423 426 429 432 435 438 441 444 447 450 453 456 459 462 465 468 471 474 477 480 483 486 489 492 495 498 501 504 507 510 513 </DataArray>
<DataArray  type="UInt8"  Name="types"  format="ascii">5 5 5 5 5 5 5 5 5 5 5 5 5 5 5 5 5 5 5 5 5 5 5 5 5 5 5 5 5 5 5 5 5 5 5 5 5 5 5 5 5 5 5 5 5 5 5 5 5 5 5 5 5 5 5 5 5 5 5 5 5 5 5 5 5 5 5 5 5 5 5 5 5 5 5 5 5 5 5 5 5 5 5 5 5 5 5 5 5 5 5 5 5 5 5 5 5 5 5 5 5 5 5 5 5 5 5 5 5 5 5 5 5 5 5 5 5 5 5 5 5 5 5 5 5 5 5 5 5 5 5 5 5 5 5 5 5 5 5 5 5 5 5 5 5 5 5 5 5 5 5 5 5 5 5 5 5 5 5 5 5 5 5 5 5 5 5 5 5 5 5 </DataArray>
</Cells>
<PointData  Vectors="f_43-0"> 
<DataArray  type="Float64"  Name="f_43-0"  NumberOfComponents="3" format="ascii">4.1724043035729889e-05 -3.4018230078365223e-04 0.0000000000000000e+00  3.4700129753247998e-05 -3.2237695286865803e-04 0.0000000000000000e+00  5.0371979391499097e-05 -3.2468962636610430e-04 0.0000000000000000e+00  4.2506472537114543e-05 -3.7410228951358429e-04 0.0000000000000000e+00  3.5579574955509187e-05 -3.5620493105157990e-04 0.0000000000000000e+00  5.1410134631480407e-05 -3.5839073913294700e-04 0.0000000000000000e+00  4.2962071739720948e-05 -4.0823021883026124e-04 0.0000000000000000e+00  3.6154082622565825e-05 -3.9029155000651410e-04 0.0000000000000000e+00  5.2091826296775252e-05 -3.9235069688029969e-04 0.0000000000000000e+00  4.3088600659586602e-05 -4.4248705532333471e-04 0.0000000000000000e+00  3.6416824991183527e-05 -4.2454397123247969e-04 0.0000000000000000e+00  5.2423711509487086e-05 -4.2647578074366644e-04 0.0000000000000000e+00  4.2881217195637545e-05 -4.7681948271813160e-04 0.0000000000000000e+00  3.6359373930620099e-05 -4.5889681841158300e-04 0.0000000000000000e+00  5.2409333613074197e-05 -4.6069934329927775e-04 0.0000000000000000e+00  2.0124598830473658e-05 -4.6570786176250174e-04 0.0000000000000000e+00  2.0250115726512985e-05 -4.4845064155359289e-04 0.0000000000000000e+00  2.0298091758929174e-05 -4.3121119522361031e-04 0.0000000000000000e+00  2.0271698773492370e-05 -4.1399509477052412e-04 0.0000000000000000e+00  1.9769499334864774e-05 -3.6255705692707108e-04 0.0000000000000000e+00  1.9470033110546712e-05 -3.4551429264504025e-04 0.0000000000000000e+00  2.0172886296685283e-05 -3.9680814686910164e-04 0.0000000000000000e+00  2.0004856705099114e-05 -3.7965922759624477e-04 0.0000000000000000e+00  5.4617636949945813e-05 -3.4203043022725140e-04 0.0000000000000000e+00  5.5506717896023959e-05 -3.7584285233548587e-04 0.0000000000000000e+00  5.6032724512644217e-05 -4.0986414461214319e-04 0.0000000000000000e+00  5.6203894473597191e-05 -4.4401427758052802e-04 0.0000000000000000e+00  5.6024432412487094e-05 -4.7823866705736109e-04 0.0000000000000000e+00  5.2073810789378820e-05 -4.9492294590214704e-04 0.0000000000000000e+00  2.9830210682387420e-05 -4.7540608779516951e-04 0.0000000000000000e+00  3.0064187444268259e-05 -4.4096902006812033e-04 0.0000000000000000e+00  2.8919825829886526e-05 -3.3836745504189474e-04 0.0000000000000000e+00  2.9595797990456930e-05 -3.7238428691594751e-04 0.0000000000000000e+00  2.9981462773721094e-05 -4.0661092493494532e-04 0.0000000000000000e+00  6.4705336293938102e-05 -3.5185399196877866e-04 0.0000000000000000e+00  6.5188586070571332e-05 -3.6871780901142606e-04 0.0000000000000000e+00  6.6055354793050886e-05 -4.1961485257612972e-04 0.0000000000000000e+00  6.6156870652578511e-05 -4.3664871297106742e-04 0.0000000000000000e+00  6.5918375764149520e-05 -4.8785706094971583e-04 0.0000000000000000e+00  6.5659959292747332e-05 -5.0494776005014636e-04 0.0000000000000000e+00  6.5573128582931917e-05 -3.8564008430214006e-04 0.0000000000000000e+00  6.5861445022724277e-05 -4.0260907967876847e-04 0.0000000000000000e+00  6.6167160009072498e-05 -4.5370384420621510e-04 0.0000000000000000e+00  6.6087496419521693e-05 -4.7077471657094237e-04 0.0000000000000000e+00  6.4121157022032724e-05 -3.3506248531955593e-04 0.0000000000000000e+00  4.3360545325679939e-01 1.8621835741402136e-03 0.0000000000000000e+00  5.0409012059427993e-01 2.8234656672146245e-03 0.0000000000000000e+00  5.0653898612028858e-01 4.0956838100432548e-03 0.0000000000000000e+00  2.4953628961798219e-01 -1.0458728134950435e-03 0.0000000000000000e+00  4.1960841658544923e-01 -2.6522189855402887e-03 0.0000000000000000e+00  3.4522189526910818e-01 -2.0077721743306798e-03 0.0000000000000000e+00  4.2475239930742192e-01 -3.4537063918982920e-03 0.0000000000000000e+00  3.9219394870600183e-01 -4.7244495344273040e-03 0.0000000000000000e+00  5.0345692836559008e-01 -8.7224201695997212e-03 0.0000000000000000e+00  4.2028082523397681e-01 -4.6717265148397752e-03 0.0000000000000000e+00  4.4656317758995112e-01 -7.9750091566839192e-03 0.0000000000000000e+00  3.3599564043218677e-01 -4.3113221051000886e-03 0.0000000000000000e+00  2.3036381870052478e-01 -1.7249477035983795e-03 0.0000000000000000e+00  1.7576654374171477e-01 -1.3796030021801604e-03 0.0000000000000000e+00  3.7208382826806335e-01 -7.3212235115157733e-03 0.0000000000000000e+00  2.0110017765516550e-01 -1.9150434392531987e-03 0.0000000000000000e+00  2.3898085218546192e-01 4.4064136112207649e-04 0.0000000000000000e+00  3.1262094371886923e-01 -2.3819460266814073e-03 0.0000000000000000e+00  1.6571930029037507e-01 -9.3828018433554758e-04 0.0000000000000000e+00  3.1777527783953091e-01 -1.9672034239293962e-03 0.0000000000000000e+00  1.8061760221782744e-01 -9.4473287356335858e-04 0.0000000000000000e+00  2.2920524727820935e-01 -6.8874854758243901e-04 0.0000000000000000e+00  4.7018794662455138e-01 -5.3402002467634506e-03 0.0000000000000000e+00  4.8790438408965803e-01 -4.7152852332873127e-03 0.0000000000000000e+00  4.4873507810454472e-01 -9.6865577327569820e-03 0.0000000000000000e+00  5.0934923655913711e-01 -1.2698759093881086e-02 0.0000000000000000e+00  2.0133945723236182e-01 -6.8854459633991281e-04 0.0000000000000000e+00  2.0307948059175954e-01 -9.0912505884211639e-04 0.0000000000000000e+00  1.6708896118322036e-01 -8.1727744746891125e-04 0.0000000000000000e+00  2.0623477526192052e-01 -5.8130899237689751e-05 0.0000000000000000e+00  2.0760506996139261e-01 3.4646087065801996e-05 0.0000000000000000e+00  3.9910118190744137e-01 -3.5374934817904852e-03 0.0000000000000000e+00  2.3420703897248990e-01 -4.2635440601175161e-05 0.0000000000000000e+00  1.8004976764942918e-01 -1.3458349050085098e-04 0.0000000000000000e+00  1.8250845891947873e-01 -5.0008757095721273e-05 0.0000000000000000e+00  4.3592477632553345e-01 1.4327780526534153e-03 0.0000000000000000e+00  1.9165804449906459e-01 2.0482981853641081e-04 0.0000000000000000e+00  4.3950980803049122e-01 2.6150693966521207e-03 0.0000000000000000e+00  1.7247949061315371e-01 -5.8932206331446086e-04 0.0000000000000000e+00  3.3734646051023232e-01 1.9008197259132028e-03 0.0000000000000000e+00  2.1488732323777857e-01 5.2676909200380080e-04 0.0000000000000000e+00  3.3866261692976513e-01 5.0532011405520687e-04 0.0000000000000000e+00  3.4155524190205389e-01 -1.4773285868828461e-03 0.0000000000000000e+00  4.1798208486505983e-01 -2.1408153647346530e-03 0.0000000000000000e+00  3.4267374308967968e-01 1.2192378230013777e-03 0.0000000000000000e+00  3.1441402448178635e-01 -1.1811592167316404e-03 0.0000000000000000e+00  4.7305936565283535e-01 1.6208670928188203e-03 0.0000000000000000e+00  4.7965460540083521e-01 4.5353203671042383e-03 0.0000000000000000e+00  2.9499820494175960e-01 4.5079479780636066e-04 0.0000000000000000e+00  3.5901372565135403e-01 7.4959435183985491e-04 0.0000000000000000e+00  3.9260195506961543e-01 7.2174793466489953e-04 0.0000000000000000e+00  3.6085798443468958e-01 1.2012698670943295e-03 0.0000000000000000e+00  5.1168467883212454e-01 7.8538393536632754e-03 0.0000000000000000e+00  4.4338128418501144e-01 4.5261637230118940e-03 0.0000000000000000e+00  3.9919178542064293e-01 2.5064470609047441e-03 0.0000000000000000e+00  1.5237719545940809e-01 -1.9763213260677633e-04 0.0000000000000000e+00  4.8720204504426928e-01 -1.5473824778561192e-02 0.0000000000000000e+00  </DataArray> 
</PointData> 
</Piece>
</UnstructuredGrid>
</VTKFile>