<?xml version="1.0"?>
<VTKFile type="UnstructuredGrid"  version="0.1"  >
<UnstructuredGrid>
<Piece  NumberOfPoints="100" NumberOfCells="168">
<Points>
<DataArray  type="Float64"  NumberOfComponents="3"  format="ascii">0.3535460261755617 0.19 0  0.3528922713220932 0.2000185703532356 0  0.3590076176283495 0.196411355804271 0  0.3473758401723931 0.1961819304478349 0  0.3535460261749672 0.21 0  0.3473758401724931 0.2038180695522752 0  0.3590471196690275 0.2036304442587945 0  0.3796850840047755 0.200000000000134 0  0.3871533862418661 0.2029084173136212 0  0.3871533862424271 0.1959250838464788 0  0.3650630746574081 0.199866017807523 0  0.3722167817676917 0.2029084173136195 0  0.372246743208829 0.1959123236376545 0  0.3274069683451451 0.2000000000000796 0  0.3348752705822316 0.202908417313609 0  0.3347912413592433 0.1959225448935183 0  0.3127789816668748 0.1998657885438805 0  0.3199386661080599 0.202908417313604 0  0.3199680582793816 0.1959123018030061 0  0.3417402379596385 0.1998691686391011 0  0.3684826306491596 0.21 0  0.3759509328862226 0.21 0  0.3311411194636928 0.21 0  0.3386094217007701 0.21 0  0.383419235123329 0.21 0  0.3908875373604028 0.21 0  0.3460777239384295 0.19 0  0.3460777239378666 0.21 0  0.3087362127527544 0.19 0  0.3012679105156187 0.19 0  0.3066757059912147 0.1964092924317024 0  0.361014328412667 0.19 0  0.3796850840055151 0.1943028057712579 0  0.3647484795312433 0.1943028057712484 0  0.3274069683455914 0.1943028057712305 0  0.3124703638713219 0.1943028057712193 0  0.3610143284120516 0.21 0  0.341834128962283 0.1943988119061815 0  0.3650260178642469 0.2054197153269502 0  0.3796850840047754 0.2056971942288865 0  0.3274069683451451 0.2056971942288527 0  0.341845332858566 0.2054104280253135 0  0.3908875373612097 0.19 0  0.3834192351240934 0.19 0  0.3759509328869369 0.19 0  0.3684826306498175 0.19 0  0.3386094217012945 0.19 0  0.3311411194641595 0.19 0  0.3236728172270245 0.19 0  0.3162045149898895 0.19 0  0.3655464778159961 0.1466879707354811 0  0.3738358170836363 0.1565872175614931 0  0.383930166391577 0.149077512173999 0  0.3418349201952718 0.1615259010424026 0  0.3538118084207602 0.155339561103512 0  0.3411001259021957 0.1498303228783227 0  0.3422976980851364 0.1814371791041619 0  0.3871183818181629 0.1813492091082587 0  0.3803545031770169 0.2233799225275491 0  0.3797734699465006 0.2157346552691785 0  0.3868315570898186 0.2161590584307608 0  0.3298647941762166 0.154951077946048 0  0.3304301052933576 0.1665413931712652 0  0.3527566348301668 0.1449455739485435 0  0.3342547353003448 0.176221364131867 0  0.3420590264647178 0.171174416987776 0  0.3125543224194783 0.1825714068210268 0  0.3272791508030818 0.1825813053721834 0  0.3572801772935104 0.2173273935815939 0  0.3722102571583817 0.2173806806735415 0  0.3647484950731696 0.1690362455853913 0  0.3534047339781095 0.1664079800909994 0  0.3646043070190422 0.1595814785132252 0  0.3573906953035386 0.1825704874733474 0  0.3721062650880237 0.1825704912629938 0  0.334769373574778 0.1838585991320073 0  0.3758459195692864 0.1665688727818971 0  0.3498118750569956 0.1834818329761723 0  0.3796850840055151 0.1834818329761566 0  0.350235271979906 0.176105405901683 0  0.3198867512741007 0.1691875758392534 0  0.3199291472277772 0.1784487091275169 0  0.3133418865444516 0.1745347694704089 0  0.3264689647572548 0.1745410252268062 0  0.3871533862426517 0.1622083790690482 0  0.30960746080092 0.166771572284543 0  0.3198495352051576 0.1594009174606977 0  0.3792616967340072 0.1761054533295981 0  0.3052148703289762 0.176135200920133 0  0.3050224637686886 0.1840003691157356 0  0.3647484799225001 0.1783360555704042 0  0.3580172190788822 0.1744509634985612 0  0.3714797435049115 0.1744509558619459 0  0.3716385577875085 0.2254972730720332 0  0.3870163828938027 0.1711802904735331 0  0.3497998287380586 0.2162289176852799 0  0.3199315490584526 0.1848904494130124 0  0.3647474910084925 0.215095947068514 0  0.3647484797606208 0.1848841839272463 0  0.364747590224077 0.2216658739063822 0  </DataArray>
</Points>
<Cells>
<DataArray  type="UInt32"  Name="connectivity"  format="ascii">0 1 2  0 1 3  4 1 5  4 1 6  7 8 9  10 11 12  13 14 15  16 17 18  13 17 18  19 14 15  7 11 12  20 21 11  22 23 14  24 25 8  0 26 3  27 4 5  28 29 30  31 0 2  7 9 32  10 12 33  13 15 34  16 18 35  13 18 34  7 12 32  4 36 6  19 15 37  20 11 38  21 11 39  10 11 38  24 8 39  22 14 40  7 8 39  7 11 39  13 17 40  13 14 40  23 14 41  19 14 41  42 43 9  44 45 12  46 47 15  48 49 18  10 2 6  1 2 6  44 12 32  43 9 32  45 12 33  47 15 34  49 18 35  48 18 34  1 5 3  19 5 3  46 15 37  10 6 38  26 46 37  23 27 41  43 44 32  45 31 33  36 20 38  21 24 39  47 48 34  49 28 35  36 6 38  10 2 33  31 2 33  16 30 35  28 30 35  26 3 37  27 5 41  19 5 41  19 3 37  50 51 52  53 54 55  26 46 56  42 43 57  58 59 60  53 61 62  54 55 63  64 62 65  53 62 65  49 28 66  47 48 67  4 36 68  20 21 69  70 71 72  31 0 73  44 45 74  46 56 75  70 76 72  26 56 77  53 54 71  43 57 78  58 69 59  79 73 77  80 81 82  80 81 83  84 51 76  64 67 75  80 85 86  87 74 78  53 61 55  80 62 86  88 66 89  79 56 65  64 56 65  70 90 91  70 90 92  58 69 93  79 71 65  84 51 52  87 57 94  27 4 95  28 29 89  46 47 75  88 66 82  64 67 83  21 24 59  0 26 77  79 73 91  70 91 71  43 44 78  54 71 72  70 92 76  28 66 89  87 74 92  51 76 72  87 76 94  47 67 75  4 68 95  21 69 59  0 73 77  79 56 77  44 74 78  61 62 86  53 71 65  49 66 96  64 56 75  87 57 78  48 67 96  36 68 97  20 69 97  31 73 98  45 74 98  24 25 60  84 76 94  50 54 72  50 51 72  88 85 82  24 59 60  81 66 82  80 85 82  81 67 83  50 54 63  79 91 71  99 69 93  64 62 83  80 62 83  87 92 76  90 73 91  90 74 92  81 66 96  81 67 96  48 49 96  99 68 97  36 20 97  99 69 97  45 31 98  90 73 98  90 74 98  </DataArray>
<DataArray  type="UInt32"  Name="offsets"  format="ascii">3 6 9 12 15 18 21 24 27 30 33 36 39 42 45 48 51 54 57 60 63 66 69 72 75 78 81 84 87 90 93 96 99 102 105 108 111 114 117 120 123 126 129 132 135 138 141 144 147 150 153 156 159 162 165 168 171 174 177 180 183 186 189 192 195 198 201 204 207 210 213 216 219 222 225 228 231 234 237 240 243 246 249 252 255 258 261 264 267 270 273 276 279 282 285 288 291 294 297 300 303 306 309 312 315 318 321 324 327 330 333 336 339 342 345 348 351 354 357 360 363 366 369 372 375 378 381 384 387 390 393 396 399 402 405 408 411 414 417 420 423 426 429 432 435 438 441 444 447 450 453 456 459 462 465 468 471 474 477 480 483 486 489 492 495 498 501 504 </DataArray>
<DataArray  type="UInt8"  Name="types"  format="ascii">5 5 5 5 5 5 5 5 5 5 5 5 5 5 5 5 5 5 5 5 5 5 5 5 5 5 5 5 5 5 5 5 5 5 5 5 5 5 5 5 5 5 5 5 5 5 5 5 5 5 5 5 5 5 5 5 5 5 5 5 5 5 5 5 5 5 5 5 5 5 5 5 5 5 5 5 5 5 5 5 5 5 5 5 5 5 5 5 5 5 5 5 5 5 5 5 5 5 5 5 5 5 5 5 5 5 5 5 5 5 5 5 5 5 5 5 5 5 5 5 5 5 5 5 5 5 5 5 5 5 5 5 5 5 5 5 5 5 5 5 5 5 5 5 5 5 5 5 5 5 5 5 5 5 5 5 5 5 5 5 5 5 5 5 5 5 5 5 </DataArray>
</Cells>
<PointData  Vectors="f_43-0"> 
<DataArray  type="Float64"  Name="f_43-0"  NumberOfComponents="3" format="ascii">6.3235489790008966e-06 -8.4319674505113631e-05 0.0000000000000000e+00  2.1788979761967587e-05 -8.7493407007374971e-05 0.0000000000000000e+00  1.7423517574965202e-05 -9.5741087691534295e-05 0.0000000000000000e+00  1.4707800905638903e-05 -7.7266598366779751e-05 0.0000000000000000e+00  3.7698886424146830e-05 -9.3430976944996070e-05 0.0000000000000000e+00  2.6135047892679754e-05 -8.0762081130652649e-05 0.0000000000000000e+00  2.9141738127970168e-05 -9.9069021606560016e-05 0.0000000000000000e+00  2.7918310386525092e-05 -1.3324365073404167e-04 0.0000000000000000e+00  3.4925259926656670e-05 -1.4836821846867890e-04 0.0000000000000000e+00  2.1889993795463091e-05 -1.4541600759794361e-04 0.0000000000000000e+00  2.4426805562578540e-05 -1.0737077329745336e-04 0.0000000000000000e+00  3.1373105978035557e-05 -1.2113326736299061e-04 0.0000000000000000e+00  1.9163709946122563e-05 -1.1812418826105434e-04 0.0000000000000000e+00  1.5426450315322247e-05 -5.1125446316737328e-05 0.0000000000000000e+00  2.1216992388417714e-05 -6.2321988979424967e-05 0.0000000000000000e+00  1.1797589458255906e-05 -5.9034272161751053e-05 0.0000000000000000e+00  1.1680865848138757e-05 -3.4035261662974181e-05 0.0000000000000000e+00  1.6905102192796588e-05 -4.3406501535911940e-05 0.0000000000000000e+00  8.8884234655286394e-06 -4.0314750017477155e-05 0.0000000000000000e+00  1.8826026691100379e-05 -7.0548299875016274e-05 0.0000000000000000e+00  4.2730586233122212e-05 -1.1805286844210095e-04 0.0000000000000000e+00  4.5066666957017269e-05 -1.3113542146378463e-04 0.0000000000000000e+00  2.9429710998551608e-05 -6.0971328683416086e-05 0.0000000000000000e+00  3.2263449909567385e-05 -7.1140006202867050e-05 0.0000000000000000e+00  4.7275825107561123e-05 -1.4468080603652754e-04 0.0000000000000000e+00  4.9353813033004968e-05 -1.5864600882986907e-04 0.0000000000000000e+00  5.3092877681370989e-06 -7.2800595893621753e-05 0.0000000000000000e+00  3.5027196464856430e-05 -8.1975157219863864e-05 0.0000000000000000e+00  9.6648747612554751e-07 -2.6027804327881883e-05 0.0000000000000000e+00  3.6424180288003098e-07 -1.9136623450674324e-05 0.0000000000000000e+00  6.9464564127573738e-06 -2.6407906843580781e-05 0.0000000000000000e+00  7.3479246658821683e-06 -9.6453026893797796e-05 0.0000000000000000e+00  1.7639253992113374e-05 -1.3086001801068976e-04 0.0000000000000000e+00  1.5046257062316677e-05 -1.0444981086792572e-04 0.0000000000000000e+00  8.3139705141961583e-06 -4.8665864191919959e-05 0.0000000000000000e+00  5.8193458321474961e-06 -3.1392129058934309e-05 0.0000000000000000e+00  4.0272123907712626e-05 -1.0547007299507103e-04 0.0000000000000000e+00  1.1032147807263345e-05 -6.8296902077993613e-05 0.0000000000000000e+00  3.3791596434464469e-05 -1.0988688141175978e-04 0.0000000000000000e+00  3.8278110564234128e-05 -1.3580274353216165e-04 0.0000000000000000e+00  2.2559156893703987e-05 -5.3874899039150248e-05 0.0000000000000000e+00  2.6811868655456794e-05 -7.3361690328505573e-05 0.0000000000000000e+00  1.1380733266842517e-05 -1.5021696024160300e-04 0.0000000000000000e+00  1.0399629699295330e-05 -1.3608218512476075e-04 0.0000000000000000e+00  9.3955835185242075e-06 -1.2238072600604649e-04 0.0000000000000000e+00  8.3758286139765467e-06 -1.0915629210583977e-04 0.0000000000000000e+00  4.3218510846866219e-06 -6.1942026188484931e-05 0.0000000000000000e+00  3.3780579057736295e-06 -5.1791264730768624e-05 0.0000000000000000e+00  2.4912906934543508e-06 -4.2393965444413121e-05 0.0000000000000000e+00  1.6823715386305915e-06 -3.3792774988091609e-05 0.0000000000000000e+00  5.2038889767577001e-01 3.4864281809187700e-02 0.0000000000000000e+00  4.9569392963184616e-01 1.9025162947600795e-02 0.0000000000000000e+00  5.2883850826559209e-01 1.8815515991053380e-02 0.0000000000000000e+00  4.2811644347917371e-01 3.8364917090337375e-02 0.0000000000000000e+00  4.7790100803905544e-01 3.6517013265063084e-02 0.0000000000000000e+00  4.8216706693595546e-01 5.8891845073410110e-02 0.0000000000000000e+00  2.1340045555286491e-01 4.8770936190319462e-03 0.0000000000000000e+00  2.3940872833401597e-01 6.9490762755109044e-04 0.0000000000000000e+00  3.2448665584842146e-01 -2.9682283810179991e-03 0.0000000000000000e+00  1.6997089358682424e-01 -7.2244050488722272e-04 0.0000000000000000e+00  1.8170835027006521e-01 -6.2418319801357087e-04 0.0000000000000000e+00  4.3981116466077891e-01 6.5201041561643774e-02 0.0000000000000000e+00  3.7088231643665398e-01 3.8551250205297281e-02 0.0000000000000000e+00  5.1321542962862110e-01 5.0116210591436929e-02 0.0000000000000000e+00  2.8461712983568394e-01 1.4737134470956198e-02 0.0000000000000000e+00  3.5621127234815397e-01 2.0139716472070673e-02 0.0000000000000000e+00  1.4685543435338508e-01 8.4057065654644207e-03 0.0000000000000000e+00  1.7267092733893319e-01 5.8599424497606705e-03 0.0000000000000000e+00  1.9947976278993343e-01 -2.3322940141841542e-03 0.0000000000000000e+00  2.0724891036097248e-01 -1.3898363901479786e-03 0.0000000000000000e+00  4.0769275153634754e-01 1.1649060645576021e-02 0.0000000000000000e+00  4.1576511923171672e-01 2.0791035242548241e-02 0.0000000000000000e+00  4.7253747114208461e-01 2.2086702130033230e-02 0.0000000000000000e+00  2.0234116417809417e-01 2.1435329808866753e-03 0.0000000000000000e+00  2.0878297480685851e-01 1.1063876942445940e-03 0.0000000000000000e+00  1.5661744018115692e-01 3.3211709629691810e-03 0.0000000000000000e+00  4.3878236106416485e-01 9.4910827492680535e-03 0.0000000000000000e+00  1.7754201888172194e-01 2.2565703090402425e-03 0.0000000000000000e+00  1.8955762744309210e-01 5.2629077745232811e-04 0.0000000000000000e+00  3.1036692617047990e-01 9.1978626379419070e-03 0.0000000000000000e+00  3.2221480093578936e-01 4.0901307577524693e-02 0.0000000000000000e+00  2.2455858959494285e-01 1.5723881994590468e-02 0.0000000000000000e+00  2.5289998125921159e-01 2.9449585196647813e-02 0.0000000000000000e+00  2.8842876372045312e-01 2.2059485868674941e-02 0.0000000000000000e+00  4.7740815143967674e-01 8.5376901061950394e-03 0.0000000000000000e+00  3.0916939748105332e-01 5.7875464729559893e-02 0.0000000000000000e+00  3.9173761736222579e-01 6.8340027460078084e-02 0.0000000000000000e+00  3.3266205099913354e-01 2.8940925491971270e-03 0.0000000000000000e+00  2.0998175220371920e-01 2.8617378050919243e-02 0.0000000000000000e+00  1.0867781138675117e-01 6.6607062103773420e-03 0.0000000000000000e+00  2.8880038103888844e-01 3.8623814967922942e-03 0.0000000000000000e+00  3.4122212238590699e-01 8.5405230025885504e-03 0.0000000000000000e+00  3.5226710251636140e-01 5.1601531513629853e-03 0.0000000000000000e+00  3.5087719403444551e-01 -5.5075667099267929e-03 0.0000000000000000e+00  4.0106937466370146e-01 3.9071043560718289e-03 0.0000000000000000e+00  1.7047715510430045e-01 -2.2788822917815055e-03 0.0000000000000000e+00  1.1773509541486132e-01 3.5827532754542893e-03 0.0000000000000000e+00  1.5013736139426967e-01 -9.6231598548492190e-04 0.0000000000000000e+00  1.5102615890096596e-01 7.2135283222407858e-04 0.0000000000000000e+00  2.8810198487692085e-01 -4.1952636257074384e-03 0.0000000000000000e+00  </DataArray> 
</PointData> 
</Piece>
</UnstructuredGrid>
</VTKFile>