<?xml version="1.0"?>
<VTKFile type="UnstructuredGrid"  version="0.1"  >
<UnstructuredGrid>
<Piece  NumberOfPoints="102" NumberOfCells="171">
<Points>
<DataArray  type="Float64"  NumberOfComponents="3"  format="ascii">0.476773013087985 0.1999999999998713 0  0.4693047108508938 0.1970915826863783 0  0.4693047108503577 0.2040749161535231 0  0.4917096175621762 0.1999999999998808 0  0.4842413153250809 0.1970915826863873 0  0.4842413153245942 0.2040749161535287 0  0.5066462220363641 0.199999999999908 0  0.4991779197992749 0.1970915826863902 0  0.4991779197988497 0.2040749161535382 0  0.5215828265105155 0.1999999999999228 0  0.5141145242734466 0.1970915826863843 0  0.5141145242731028 0.2040749161535395 0  0.5365194309847112 0.1999999999999436 0  0.5290511287476175 0.1970915826863981 0  0.5290511287473298 0.2040749161535501 0  0.5327852798661811 0.19 0  0.5253169776290537 0.19 0  0.5178486753919799 0.19 0  0.5103803731549078 0.19 0  0.4879754664436223 0.19 0  0.4805071642065402 0.19 0  0.502912070917822 0.19 0  0.4954437686807294 0.19 0  0.4767730130872753 0.2056971942287455 0  0.4917096175615203 0.2056971942287492 0  0.5066462220358396 0.2056971942287649 0  0.5215828265100828 0.2056971942287677 0  0.5365194309843644 0.2056971942287865 0  0.5439623148931173 0.2040856076781014 0  0.5365194309847112 0.1943028057711659 0  0.5215828265105155 0.1943028057711514 0  0.4767730130879849 0.1943028057711153 0  0.4917096175621761 0.1943028057711214 0  0.5066462220363641 0.1943028057711422 0  0.480507164205851 0.21 0  0.4879754664429498 0.21 0  0.5103803731544119 0.21 0  0.5178486753915261 0.21 0  0.5402535821029386 0.21 0  0.54772188434007 0.21 0  0.4954437686800938 0.21 0  0.502912070917267 0.21 0  0.5253169776286404 0.21 0  0.5327852798657868 0.21 0  0.4730388619686996 0.21 0  0.4991779197992711 0.167693385507626 0  0.4900906149793102 0.1565876018036352 0  0.5082652246192162 0.1565876018036352 0  0.499237761463083 0.2192785032300353 0  0.4993542269391089 0.2308107468212473 0  0.5064903940750056 0.2246838314870058 0  0.5123638022628456 0.2310955071885417 0  0.536567636007916 0.2275987754591341 0  0.5347760817351684 0.2414500964404198 0  0.5283542774025207 0.2302880001042248 0  0.5455709551586724 0.2324144452751203 0  0.546982877175164 0.2233942294772845 0  0.5365194309843644 0.2180863504285254 0  0.5444469726554123 0.2157339702670886 0  0.5588244563271773 0.225349035787779 0  0.5519051872593019 0.2166420053265535 0  0.5216178319364539 0.1813492122870838 0  0.5265047000024197 0.2223941974774756 0  0.5286910337265995 0.2154702409242758 0  0.5150278681324471 0.2228450308306156 0  0.5214285426002536 0.2161011329323836 0  0.4767730130872752 0.2184019876485795 0  0.5209814004512184 0.2362962593649592 0  0.5084573036363184 0.2395108277223441 0  0.553378981997341 0.2322691570724318 0  0.5504647692515866 0.2417078359721865 0  0.4910031975930484 0.2171006717137592 0  0.5075668509025225 0.2171084086245455 0  0.5143590539697885 0.2155988592715468 0  0.4917096175621761 0.1826726487251064 0  0.5066462220363641 0.1826726487251085 0  0.5208355992062484 0.2285465546466679 0  0.4767380076620556 0.1813492122870721 0  0.4842366479349569 0.1837683957184343 0  0.5141191916635692 0.1837683957184422 0  0.4867628426197099 0.1672556638427207 0  0.5290511287476175 0.1834818376483974 0  0.5115929969788211 0.1672556638427288 0  0.4841984187204001 0.2159109988582109 0  0.5294745265341012 0.1761054820336709 0  0.5366299525895074 0.1825690825227473 0  0.4842413153250809 0.1755365127551258 0  0.4923756029794709 0.2245693836696246 0  0.4869999746943883 0.2308048359320609 0  0.5141145242734466 0.1755365127551412 0  0.4846260107628763 0.2228898464509046 0  0.4767730130879849 0.1622083790703084 0  0.5215828265105156 0.1622083790703317 0  0.4991779197992725 0.1783172034453956 0  0.4923389098589435 0.1741809711526818 0  0.4767269250530047 0.1713973971258736 0  0.506016929739597 0.1741809711526895 0  0.5349004284018322 0.1565876018036672 0  0.5316967135713353 0.1673421178078786 0  0.5216289307659581 0.1713997813123399 0  0.4991779197992735 0.1849089375109228 0  0.5631143150331265 0.2366473934541688 0  </DataArray>
</Points>
<Cells>
<DataArray  type="UInt32"  Name="connectivity"  format="ascii">0 1 2  3 4 5  6 7 8  9 10 11  12 13 14  9 13 14  6 10 11  3 7 8  0 4 5  15 16 13  17 18 10  19 20 4  21 22 7  0 2 23  3 5 24  6 8 25  9 11 26  12 14 27  12 28 27  9 14 26  6 11 25  3 8 24  0 5 23  15 13 29  16 13 30  9 13 30  12 13 29  0 4 31  20 4 31  0 1 31  19 4 32  18 10 33  21 7 33  22 7 32  17 10 30  6 7 33  6 10 33  3 4 32  3 7 32  9 10 30  34 35 5  36 37 11  38 39 28  40 41 8  42 43 14  34 5 23  44 2 23  35 5 24  40 8 24  36 11 25  41 8 25  42 14 26  43 14 27  38 28 27  37 11 26  44 34 23  35 40 24  41 36 25  43 38 27  37 42 26  22 19 32  18 21 33  16 17 30  45 46 47  40 41 48  49 50 51  52 53 54  52 53 55  56 57 58  59 56 60  52 56 57  16 17 61  52 62 57  62 57 63  64 62 65  44 34 66  67 53 54  43 38 57  49 68 51  59 56 69  70 53 55  40 48 71  41 48 72  52 56 55  64 73 65  22 19 74  18 21 75  64 62 76  20 77 78  17 61 79  45 46 80  16 61 81  56 55 69  45 47 82  34 66 83  35 40 71  41 36 72  84 85 81  52 62 54  86 74 78  49 87 88  67 68 51  89 75 79  38 57 58  43 57 63  90 71 83  64 72 73  91 46 80  19 20 78  17 18 79  15 16 81  34 35 83  92 47 82  36 37 73  45 93 94  86 77 95  45 93 96  92 97 98  45 94 80  19 74 78  84 61 99  18 75 79  45 96 82  89 61 99  90 71 87  37 42 65  15 85 81  64 72 50  86 74 94  89 75 96  38 39 58  35 71 83  36 72 73  22 74 100  21 75 100  42 43 63  84 61 81  86 80 95  84 98 99  86 77 78  89 61 79  89 82 99  49 48 87  49 48 50  90 66 83  37 73 65  48 71 87  48 72 50  39 60 58  42 65 63  92 98 99  91 80 95  59 101 69  21 22 100  92 82 99  64 50 51  86 94 80  93 74 94  93 75 96  89 96 82  70 101 69  93 74 100  93 75 100  56 60 58  62 65 63  90 87 88  62 54 76  64 76 51  70 55 69  67 76 51  67 54 76  </DataArray>
<DataArray  type="UInt32"  Name="offsets"  format="ascii">3 6 9 12 15 18 21 24 27 30 33 36 39 42 45 48 51 54 57 60 63 66 69 72 75 78 81 84 87 90 93 96 99 102 105 108 111 114 117 120 123 126 129 132 135 138 141 144 147 150 153 156 159 162 165 168 171 174 177 180 183 186 189 192 195 198 201 204 207 210 213 216 219 222 225 228 231 234 237 240 243 246 249 252 255 258 261 264 267 270 273 276 279 282 285 288 291 294 297 300 303 306 309 312 315 318 321 324 327 330 333 336 339 342 345 348 351 354 357 360 363 366 369 372 375 378 381 384 387 390 393 396 399 402 405 408 411 414 417 420 423 426 429 432 435 438 441 444 447 450 453 456 459 462 465 468 471 474 477 480 483 486 489 492 495 498 501 504 507 510 513 </DataArray>
<DataArray  type="UInt8"  Name="types"  format="ascii">5 5 5 5 5 5 5 5 5 5 5 5 5 5 5 5 5 5 5 5 5 5 5 5 5 5 5 5 5 5 5 5 5 5 5 5 5 5 5 5 5 5 5 5 5 5 5 5 5 5 5 5 5 5 5 5 5 5 5 5 5 5 5 5 5 5 5 5 5 5 5 5 5 5 5 5 5 5 5 5 5 5 5 5 5 5 5 5 5 5 5 5 5 5 5 5 5 5 5 5 5 5 5 5 5 5 5 5 5 5 5 5 5 5 5 5 5 5 5 5 5 5 5 5 5 5 5 5 5 5 5 5 5 5 5 5 5 5 5 5 5 5 5 5 5 5 5 5 5 5 5 5 5 5 5 5 5 5 5 5 5 5 5 5 5 5 5 5 5 5 5 </DataArray>
</Cells>
<PointData  Vectors="f_43-0"> 
<DataArray  type="Float64"  Name="f_43-0"  NumberOfComponents="3" format="ascii">-1.4291519031690272e-04 2.5837269073286998e-03 0.0000000000000000e+00  -1.0180797666230391e-04 2.4800693496468324e-03 0.0000000000000000e+00  -1.9877836282923710e-04 2.4828512905644899e-03 0.0000000000000000e+00  -1.4329300370188630e-04 2.7801504591426843e-03 0.0000000000000000e+00  -1.0493138939108364e-04 2.6822291473764595e-03 0.0000000000000000e+00  -1.9708671724717687e-04 2.6843075507109763e-03 0.0000000000000000e+00  -1.4240985464873478e-04 2.9666250749051260e-03 0.0000000000000000e+00  -1.0646966683246272e-04 2.8737441382578159e-03 0.0000000000000000e+00  -1.9420130989497515e-04 2.8752637874477844e-03 0.0000000000000000e+00  -1.4059934314770997e-04 3.1449464459673195e-03 0.0000000000000000e+00  -1.0661449725729889e-04 3.0560870122809027e-03 0.0000000000000000e+00  -1.9064320346014958e-04 3.0572027045121064e-03 0.0000000000000000e+00  -1.3818013844840241e-04 3.3172495026375648e-03 0.0000000000000000e+00  -1.0562621881071803e-04 3.2312676051006362e-03 0.0000000000000000e+00  -1.8684019887931004e-04 3.2321248333801577e-03 0.0000000000000000e+00  -2.3634273366410831e-05 3.2727048711721986e-03 0.0000000000000000e+00  -2.3202058455781061e-05 3.1862840238679364e-03 0.0000000000000000e+00  -2.2306087581617356e-05 3.0984583378912346e-03 0.0000000000000000e+00  -2.0899247522002478e-05 3.0089330201397602e-03 0.0000000000000000e+00  -1.3449185476676301e-05 2.7276717293263238e-03 0.0000000000000000e+00  -9.8980312033752116e-06 2.6289512603553380e-03 0.0000000000000000e+00  -1.8961346928137019e-05 2.9174627933888932e-03 0.0000000000000000e+00  -1.6478203028813078e-05 2.8237775103970453e-03 0.0000000000000000e+00  -2.2011649242758625e-04 2.5853003651559250e-03 0.0000000000000000e+00  -2.1665429589084567e-04 2.7812380740313051e-03 0.0000000000000000e+00  -2.1240526803653623e-04 2.9673789004892055e-03 0.0000000000000000e+00  -2.0790759668362630e-04 3.1455042448278450e-03 0.0000000000000000e+00  -2.0355157405496109e-04 3.3177242881035499e-03 0.0000000000000000e+00  -1.8323087540292308e-04 3.4018965246175354e-03 0.0000000000000000e+00  -7.2836538482942473e-05 3.3163775349972129e-03 0.0000000000000000e+00  -7.3359074058818879e-05 3.1438061603732848e-03 0.0000000000000000e+00  -6.5912773957811727e-05 2.5811632135597918e-03 0.0000000000000000e+00  -7.0087920097824084e-05 2.7781513872311091e-03 0.0000000000000000e+00  -7.2525907556789311e-05 2.9651068242013997e-03 0.0000000000000000e+00  -2.7697625241580463e-04 2.6357047509685751e-03 0.0000000000000000e+00  -2.7373015867079338e-04 2.7334999587143565e-03 0.0000000000000000e+00  -2.6347913939624249e-04 3.0126191613756401e-03 0.0000000000000000e+00  -2.6018828962731200e-04 3.1016362733809074e-03 0.0000000000000000e+00  -2.5145344499214698e-04 3.3602207358248114e-03 0.0000000000000000e+00  -2.4900691973959321e-04 3.4444513719458190e-03 0.0000000000000000e+00  -2.7032973982355049e-04 2.8287870987934098e-03 0.0000000000000000e+00  -2.6688578680201819e-04 2.9217524922172861e-03 0.0000000000000000e+00  -2.5706135015776872e-04 3.1890649673329647e-03 0.0000000000000000e+00  -2.5414281065819103e-04 3.2751737357525823e-03 0.0000000000000000e+00  -2.7996829962152601e-04 2.5352666260008137e-03 0.0000000000000000e+00  9.6231384464860759e-01 1.0607165576988789e-01 0.0000000000000000e+00  1.3864687079525257e+00 1.7532119599927473e-01 0.0000000000000000e+00  1.4603879433792830e+00 1.4990710956809786e-01 0.0000000000000000e+00  4.1093582109376647e-01 -2.5965933120573156e-02 0.0000000000000000e+00  8.7144129389774427e-01 -9.7904927533218791e-02 0.0000000000000000e+00  6.7062882695609127e-01 -5.4708655304612469e-02 0.0000000000000000e+00  9.6255865514266581e-01 -8.9221898845422587e-02 0.0000000000000000e+00  9.5184503123913733e-01 -5.4497865001302007e-02 0.0000000000000000e+00  1.4695322909529551e+00 -1.1751434742741936e-01 0.0000000000000000e+00  1.0173939225170969e+00 -7.2534907227017650e-02 0.0000000000000000e+00  1.1806182522096305e+00 -7.2285740208582389e-02 0.0000000000000000e+00  8.2150289837179913e-01 -3.1733025616034409e-02 0.0000000000000000e+00  5.1890293675339028e-01 -1.2760938020695643e-02 0.0000000000000000e+00  4.0780512240113398e-01 -4.8052332059758812e-03 0.0000000000000000e+00  9.5750113374426371e-01 -3.7786640520060324e-02 0.0000000000000000e+00  4.8416671354014940e-01 -6.6157089169643175e-03 0.0000000000000000e+00  5.0558655525687546e-01 2.1844370192836450e-02 0.0000000000000000e+00  6.8417132071729314e-01 -3.3418881887624451e-02 0.0000000000000000e+00  3.4911699273200675e-01 -5.3629048329307989e-03 0.0000000000000000e+00  6.4466607238326368e-01 -4.0254799564643132e-02 0.0000000000000000e+00  3.6108804005042894e-01 -7.9081222883871146e-03 0.0000000000000000e+00  2.5133728788098036e-01 -2.5977964122255750e-02 0.0000000000000000e+00  1.2162153354731020e+00 -1.0928181571789260e-01 0.0000000000000000e+00  1.2856718120633885e+00 -1.3842179989441575e-01 0.0000000000000000e+00  1.2092455797842112e+00 -6.8384524483498008e-02 0.0000000000000000e+00  1.5322309884130627e+00 -1.0511005161918259e-01 0.0000000000000000e+00  2.8200600371661028e-01 -1.6706415889704743e-02 0.0000000000000000e+00  3.5790991060475269e-01 -1.3833380393598932e-02 0.0000000000000000e+00  3.1141794234108611e-01 -7.2916142355152558e-03 0.0000000000000000e+00  3.1743180104392832e-01 2.1936199610716460e-02 0.0000000000000000e+00  3.8269882765673968e-01 1.9385106336247071e-02 0.0000000000000000e+00  9.0884495262314469e-01 -6.8749713002037818e-02 0.0000000000000000e+00  2.8884854747065630e-01 3.1505900952733042e-02 0.0000000000000000e+00  2.3982423969299882e-01 1.8208958552654107e-02 0.0000000000000000e+00  3.5697320841787472e-01 1.4465438965896514e-02 0.0000000000000000e+00  9.0492465342942430e-01 1.1999524285643534e-01 0.0000000000000000e+00  4.1917113706201781e-01 1.3702363780150948e-02 0.0000000000000000e+00  1.0494445156210359e+00 9.7594809946103339e-02 0.0000000000000000e+00  2.0572552564244398e-01 -1.2110705923970014e-02 0.0000000000000000e+00  7.8036437942946901e-01 4.1912935490098280e-02 0.0000000000000000e+00  4.9266104354854440e-01 1.5437434180705806e-02 0.0000000000000000e+00  5.5120914085065253e-01 6.6627058914506751e-02 0.0000000000000000e+00  5.7648810902888425e-01 -6.0815725649597245e-02 0.0000000000000000e+00  7.8937666046938770e-01 -1.0733169388194613e-01 0.0000000000000000e+00  7.2988974981356547e-01 5.1459699251495176e-02 0.0000000000000000e+00  4.6001468324918909e-01 -5.2992686889115223e-02 0.0000000000000000e+00  1.0658349255919255e+00 1.6179552007728731e-01 0.0000000000000000e+00  1.2950131900609929e+00 1.1153572110003993e-01 0.0000000000000000e+00  5.3445982819609650e-01 4.2842493247727292e-02 0.0000000000000000e+00  6.5772119313627897e-01 7.1008225733680527e-02 0.0000000000000000e+00  6.6268344868565110e-01 9.9691464275116715e-02 0.0000000000000000e+00  7.4063749673501078e-01 6.3275486554584925e-02 0.0000000000000000e+00  1.5469926826827567e+00 1.1750258116315764e-01 0.0000000000000000e+00  1.1419991958151785e+00 8.0464866305657107e-02 0.0000000000000000e+00  9.3613488802402722e-01 6.8465471902817474e-02 0.0000000000000000e+00  2.5067213426936186e-01 1.2245168428491864e-02 0.0000000000000000e+00  1.4022563165314603e+00 -8.2168007125905676e-02 0.0000000000000000e+00  </DataArray> 
</PointData> 
</Piece>
</UnstructuredGrid>
</VTKFile>