<?xml version="1.0"?>
<VTKFile type="UnstructuredGrid"  version="0.1"  >
<UnstructuredGrid>
<Piece  NumberOfPoints="103" NumberOfCells="169">
<Points>
<DataArray  type="Float64"  NumberOfComponents="3"  format="ascii">0.4207607463097617 0.19 0  0.4201487168029707 0.1999966199048527 0  0.4261685417851465 0.196409292431739 0  0.4145905603061963 0.1961819304479011 0  0.4207607463087888 0.21 0  0.4145905603063645 0.2038180695522843 0  0.4262598344738712 0.2036568242185335 0  0.446899804139621 0.1999999999998389 0  0.4394315019025246 0.1970915826863714 0  0.4394608940728603 0.2040870543693135 0  0.3946216884789568 0.2000000000001512 0  0.4020059614928624 0.203547899597858 0  0.4019979587101454 0.1959834479682427 0  0.4618364086138087 0.1999999999998546 0  0.4543681063767183 0.1970915826863795 0  0.4543681063761134 0.2040749161535186 0  0.4693047108508938 0.1970915826863783 0  0.4693047108503577 0.2040749161535231 0  0.3871533862418661 0.2029084173136212 0  0.3871533862424271 0.1959250838464788 0  0.4089549580935208 0.1998691686391595 0  0.4322718174608562 0.200127451265745 0  0.4730388619694271 0.19 0  0.4655705597323621 0.19 0  0.4581022574952563 0.19 0  0.4506339552581777 0.19 0  0.3983558395975142 0.21 0  0.4058241418345938 0.21 0  0.4431656530210671 0.19 0  0.4356973507839815 0.19 0  0.4132924440726327 0.19 0  0.4132924440716992 0.21 0  0.4282290485468779 0.19 0  0.4468998041387391 0.2056971942287257 0  0.4618364086130068 0.2056971942287359 0  0.4319631996644724 0.205697194228716 0  0.4282290485459029 0.21 0  0.4090477820585017 0.1944069323162114 0  0.4767730130879849 0.1943028057711153 0  0.4618364086138088 0.1943028057711072 0  0.3908875373604028 0.21 0  0.3946216884789569 0.2056971942288966 0  0.446899804139621 0.194302805771098 0  0.4322275012857285 0.1945847121082109 0  0.409279320968396 0.2055930218740123 0  0.4506339552573136 0.21 0  0.4581022574944306 0.21 0  0.4356973507830418 0.21 0  0.4431656530201649 0.21 0  0.4058241418354857 0.19 0  0.4805071642065402 0.19 0  0.401463131821351 0.2240614152536154 0  0.4020899907160548 0.2165302463955136 0  0.3946216884789568 0.2158195727016258 0  0.4319631996644723 0.2259854221051505 0  0.4420138570927455 0.2303582032589531 0  0.4274409436629797 0.2358490737568498 0  0.3909674209965625 0.2226356941037057 0  0.4391642236404037 0.2185040792853546 0  0.4166532952113353 0.2316189381631693 0  0.4140433986437475 0.2417572010675891 0  0.4537654266604936 0.2283937178128906 0  0.4470337295051696 0.2214450572771946 0  0.4543958902951323 0.217783002687627 0  0.4091898654769304 0.2539103800220315 0  0.4020607667170538 0.2413000663289324 0  0.3933451459320382 0.2499378971246431 0  0.4468857282753376 0.2152350613820568 0  0.4319982050913569 0.1813492122870563 0  0.4767380076620556 0.1813492122870721 0  0.398571556794488 0.2667712515333163 0  0.3871533862418662 0.2377916209307866 0  0.3951819405974831 0.2310626528016624 0  0.424428444001246 0.2176032464898874 0  0.4319631996644723 0.2156279113565238 0  0.4095582929531458 0.2174316143878764 0  0.4065987454210035 0.2329337197796252 0  0.4170265951911974 0.1826726487248186 0  0.4102372344314323 0.2256491670083618 0  0.4470091562036288 0.18256890171664 0  0.4617258870090093 0.1826555625495994 0  0.4236090047368721 0.2262216159300549 0  0.4244995648184416 0.1837683957183748 0  0.4394315019025247 0.1834818376483804 0  0.3826544750917113 0.2574975795502557 0  0.4693047108508937 0.1834818376483876 0  0.4169851174148118 0.2217509578443784 0  0.4398548996890094 0.1761054820336394 0  0.4688813130644119 0.1761054820336536 0  0.4244948974283196 0.1755365127551117 0  0.4319720988215174 0.1712601408791398 0  0.4543681063767173 0.1676928600783137 0  0.454355826198406 0.1783191038782875 0  0.4476321386943704 0.1742462878721009 0  0.4611006434060722 0.1742578426498367 0  0.4767269250530047 0.1713973971258736 0  0.4170265951902442 0.2149173540338034 0  0.442117717086971 0.1672874945454806 0  0.4666592720111949 0.1673206601298049 0  0.4543663130808365 0.1848930798107721 0  0.3868315570898186 0.2161590584307608 0  0.3862411203249935 0.2293080201888169 0  0.3830052789765099 0.2465504596596307 0  </DataArray>
</Points>
<Cells>
<DataArray  type="UInt32"  Name="connectivity"  format="ascii">0 1 2  0 1 3  4 1 5  4 1 6  7 8 9  10 11 12  13 14 15  13 16 17  10 18 19  7 14 15  20 11 12  21 8 9  22 23 16  24 25 14  26 27 11  28 29 8  0 30 3  31 4 5  32 0 2  7 9 33  13 15 34  13 17 34  7 15 33  21 9 35  4 36 6  20 12 37  22 16 38  23 16 39  40 18 41  25 14 42  24 14 39  26 11 41  10 11 41  13 14 39  13 16 39  10 18 41  7 14 42  28 8 42  7 8 42  29 8 43  21 8 43  27 11 44  20 11 44  45 46 15  47 48 9  21 2 6  1 2 6  46 15 34  45 15 33  48 9 33  47 9 35  1 5 3  20 5 3  49 12 37  21 6 35  30 49 37  27 31 44  48 45 33  36 47 35  50 22 38  23 24 39  40 26 41  25 28 42  29 32 43  36 6 35  32 2 43  21 2 43  30 3 37  31 5 44  20 5 44  20 3 37  51 52 53  54 55 56  51 57 53  47 48 58  59 56 60  61 62 63  64 65 66  48 58 67  29 32 68  50 22 69  62 58 55  64 70 66  71 65 72  61 62 55  54 73 74  51 75 52  54 58 55  71 65 66  51 72 76  51 57 72  27 31 75  4 36 73  65 72 76  0 30 77  51 75 78  25 28 79  23 24 80  54 73 81  32 68 82  29 68 83  84 70 66  22 69 85  59 86 78  59 86 81  62 58 67  59 56 81  54 58 74  87 79 83  54 56 81  88 80 85  89 77 82  45 46 63  64 65 60  26 27 52  47 58 74  32 0 82  28 29 83  22 23 85  87 68 90  89 68 90  27 75 52  91 92 93  91 92 94  59 60 76  88 69 95  0 77 82  87 79 93  28 79 83  36 73 74  31 75 96  88 80 94  23 80 85  4 73 96  87 97 90  91 94 98  87 68 83  88 98 95  25 79 99  24 80 99  40 26 53  88 69 85  89 68 82  36 47 74  26 52 53  45 63 67  59 78 76  40 100 53  65 60 76  31 4 96  86 75 78  86 73 81  86 75 96  86 73 96  62 63 67  24 25 99  87 93 97  48 45 67  92 79 93  92 80 94  88 94 98  92 79 99  92 80 99  57 72 101  57 100 53  51 78 76  71 72 101  71 66 102  84 66 102  </DataArray>
<DataArray  type="UInt32"  Name="offsets"  format="ascii">3 6 9 12 15 18 21 24 27 30 33 36 39 42 45 48 51 54 57 60 63 66 69 72 75 78 81 84 87 90 93 96 99 102 105 108 111 114 117 120 123 126 129 132 135 138 141 144 147 150 153 156 159 162 165 168 171 174 177 180 183 186 189 192 195 198 201 204 207 210 213 216 219 222 225 228 231 234 237 240 243 246 249 252 255 258 261 264 267 270 273 276 279 282 285 288 291 294 297 300 303 306 309 312 315 318 321 324 327 330 333 336 339 342 345 348 351 354 357 360 363 366 369 372 375 378 381 384 387 390 393 396 399 402 405 408 411 414 417 420 423 426 429 432 435 438 441 444 447 450 453 456 459 462 465 468 471 474 477 480 483 486 489 492 495 498 501 504 507 </DataArray>
<DataArray  type="UInt8"  Name="types"  format="ascii">5 5 5 5 5 5 5 5 5 5 5 5 5 5 5 5 5 5 5 5 5 5 5 5 5 5 5 5 5 5 5 5 5 5 5 5 5 5 5 5 5 5 5 5 5 5 5 5 5 5 5 5 5 5 5 5 5 5 5 5 5 5 5 5 5 5 5 5 5 5 5 5 5 5 5 5 5 5 5 5 5 5 5 5 5 5 5 5 5 5 5 5 5 5 5 5 5 5 5 5 5 5 5 5 5 5 5 5 5 5 5 5 5 5 5 5 5 5 5 5 5 5 5 5 5 5 5 5 5 5 5 5 5 5 5 5 5 5 5 5 5 5 5 5 5 5 5 5 5 5 5 5 5 5 5 5 5 5 5 5 5 5 5 5 5 5 5 5 5 </DataArray>
</Cells>
<PointData  Vectors="f_43-0"> 
<DataArray  type="Float64"  Name="f_43-0"  NumberOfComponents="3" format="ascii">1.4719980961526071e-05 -2.0683759695869778e-04 0.0000000000000000e+00  3.4910928983919619e-05 -2.0924223551708137e-04 0.0000000000000000e+00  2.8479429535929831e-05 -2.2034431113828037e-04 0.0000000000000000e+00  2.6327388388264181e-05 -1.9644681010357200e-04 0.0000000000000000e+00  5.5595474014255011e-05 -2.1445297473546789e-04 0.0000000000000000e+00  4.1694625422355998e-05 -1.9941321991272763e-04 0.0000000000000000e+00  4.3446933020930851e-05 -2.2324404433336941e-04 0.0000000000000000e+00  3.8717997373016413e-05 -2.6542412811399315e-04 0.0000000000000000e+00  3.1645998212755055e-05 -2.4848228086517217e-04 0.0000000000000000e+00  4.6415889853094559e-05 -2.5105122619711629e-04 0.0000000000000000e+00  3.0277989241979177e-05 -1.5848599698483566e-04 0.0000000000000000e+00  3.8636878893542743e-05 -1.7425815927562483e-04 0.0000000000000000e+00  2.3927007804987538e-05 -1.7119437985842813e-04 0.0000000000000000e+00  4.0364115867688506e-05 -2.9763041106020829e-04 0.0000000000000000e+00  3.3350587106427064e-05 -2.8049308499850291e-04 0.0000000000000000e+00  4.8357642123168458e-05 -2.8286194067102629e-04 0.0000000000000000e+00  3.4750413804700965e-05 -3.1295523262941591e-04 0.0000000000000000e+00  4.9942588319594292e-05 -3.1519256817524486e-04 0.0000000000000000e+00  3.4123816686080787e-05 -1.4561464587164265e-04 0.0000000000000000e+00  2.1236345721582081e-05 -1.4269626206220434e-04 0.0000000000000000e+00  3.2743239652311798e-05 -1.8650970288573400e-04 0.0000000000000000e+00  3.7041866150294825e-05 -2.3445572485132537e-04 0.0000000000000000e+00  1.9713663341922257e-05 -3.1892679109807868e-04 0.0000000000000000e+00  1.9164938909777117e-05 -3.0255556684758534e-04 0.0000000000000000e+00  1.8556387914384293e-05 -2.8626651585967678e-04 0.0000000000000000e+00  1.7891458705292160e-05 -2.7008092701136650e-04 0.0000000000000000e+00  5.0416314606576033e-05 -1.6997493869574042e-04 0.0000000000000000e+00  5.2275586505045970e-05 -1.8450852554264088e-04 0.0000000000000000e+00  1.7172133614733638e-05 -2.5401863789846447e-04 0.0000000000000000e+00  1.6401818470932255e-05 -2.3810622258765322e-04 0.0000000000000000e+00  1.3812206977971858e-05 -1.9154420684971195e-04 0.0000000000000000e+00  5.4001824693759938e-05 -1.9934696418228277e-04 0.0000000000000000e+00  1.5582923503455183e-05 -2.2236845215603253e-04 0.0000000000000000e+00  5.0900913613452812e-05 -2.6743315698360285e-04 0.0000000000000000e+00  5.2729044418438738e-05 -2.9952454874725387e-04 0.0000000000000000e+00  4.8657883678940703e-05 -2.3588874643373339e-04 0.0000000000000000e+00  5.7062552441865972e-05 -2.2979496680330808e-04 0.0000000000000000e+00  2.1959549676187943e-05 -1.8459097887353908e-04 0.0000000000000000e+00  2.9277379829970838e-05 -3.2844861961328072e-04 0.0000000000000000e+00  2.8091079456302549e-05 -2.9577510532500590e-04 0.0000000000000000e+00  4.8424053126336673e-05 -1.5578080121574157e-04 0.0000000000000000e+00  4.1143630110080895e-05 -1.6090819983086052e-04 0.0000000000000000e+00  2.6627269011672568e-05 -2.6347098415918814e-04 0.0000000000000000e+00  2.5514231913603745e-05 -2.3236718582371360e-04 0.0000000000000000e+00  4.4214018503590045e-05 -1.8947470917735255e-04 0.0000000000000000e+00  6.0714212276883641e-05 -2.7694152322329846e-04 0.0000000000000000e+00  6.1694839243583031e-05 -2.9294087242969917e-04 0.0000000000000000e+00  5.8401800055581327e-05 -2.4534342809532977e-04 0.0000000000000000e+00  5.9617893083903694e-05 -2.6106754720848835e-04 0.0000000000000000e+00  1.2866579265323551e-05 -1.7652178928074231e-04 0.0000000000000000e+00  2.0200532358057630e-05 -3.3536475554155705e-04 0.0000000000000000e+00  3.5373596142789293e-01 -1.7931737788196122e-03 0.0000000000000000e+00  1.9921184239685719e-01 -5.0069055352836467e-04 0.0000000000000000e+00  1.8021941189266757e-01 -5.4138354266008938e-04 0.0000000000000000e+00  3.8805102403021580e-01 -9.2285055330582034e-04 0.0000000000000000e+00  4.4606250536535308e-01 -1.3424017749413875e-03 0.0000000000000000e+00  4.9622497182377845e-01 -2.5841794940064410e-03 0.0000000000000000e+00  3.2687884938587464e-01 -2.1811778382466143e-03 0.0000000000000000e+00  2.4907818629533415e-01 -4.9535714277809651e-04 0.0000000000000000e+00  4.5577892103667705e-01 -2.4207612576413687e-03 0.0000000000000000e+00  5.3032876377540372e-01 -5.7853407991015513e-03 0.0000000000000000e+00  4.2340467105244928e-01 -1.1656708750392951e-03 0.0000000000000000e+00  3.1161810947117208e-01 -5.7212516173177450e-04 0.0000000000000000e+00  2.3269113630652216e-01 -4.7455389229374752e-04 0.0000000000000000e+00  5.7012070332040810e-01 -1.2295808667764264e-02 0.0000000000000000e+00  5.2281379861321453e-01 -8.3852013386776902e-03 0.0000000000000000e+00  5.5131111526613930e-01 -1.7064898564299241e-02 0.0000000000000000e+00  1.6678173518299649e-01 -3.5541322467968068e-04 0.0000000000000000e+00  2.5209476293729705e-01 -9.3852208417120281e-05 0.0000000000000000e+00  2.5374959321843921e-01 -3.8304257982127974e-05 0.0000000000000000e+00  5.8609620307154009e-01 -2.3449646604108261e-02 0.0000000000000000e+00  4.9345377679017083e-01 -1.1149290359577563e-02 0.0000000000000000e+00  4.4316269453006202e-01 -4.9293263805382575e-03 0.0000000000000000e+00  2.2722587752167864e-01 -4.0848423727676364e-04 0.0000000000000000e+00  1.7726331035672230e-01 -3.0904546885272686e-04 0.0000000000000000e+00  2.2223389440653116e-01 -5.1837928138960857e-04 0.0000000000000000e+00  4.6582719653016497e-01 -3.8365747726709486e-03 0.0000000000000000e+00  2.2032347784898465e-01 -4.7214389058385564e-05 0.0000000000000000e+00  3.8020537387833286e-01 -1.5511541364244086e-03 0.0000000000000000e+00  2.2372922381319199e-01 -1.6589660409910688e-04 0.0000000000000000e+00  2.2203129835538252e-01 -1.6936402272074822e-04 0.0000000000000000e+00  3.9072783972947567e-01 -1.2089983105728452e-03 0.0000000000000000e+00  1.9298637639411570e-01 -1.6898251675054080e-04 0.0000000000000000e+00  2.0072099654571338e-01 -1.6238532114342169e-04 0.0000000000000000e+00  5.6222001102416486e-01 -2.9332646966569835e-02 0.0000000000000000e+00  2.0147612626571104e-01 -2.0526379010260510e-04 0.0000000000000000e+00  3.1565467205203290e-01 -7.8735881488541115e-04 0.0000000000000000e+00  3.5572188011428119e-01 1.1804929655217537e-04 0.0000000000000000e+00  3.5737351416139712e-01 1.7717800421297077e-04 0.0000000000000000e+00  3.6403372169581782e-01 2.7472660130445229e-04 0.0000000000000000e+00  4.2577008097415858e-01 5.6001543583287356e-04 0.0000000000000000e+00  4.6823193036371868e-01 6.7250201807847769e-04 0.0000000000000000e+00  3.1659180520699226e-01 -1.1604927176200685e-05 0.0000000000000000e+00  3.8583489519080444e-01 1.5100220185288983e-04 0.0000000000000000e+00  3.8649510104795792e-01 2.6149833694238619e-04 0.0000000000000000e+00  4.2772364043149735e-01 7.1925647968923054e-04 0.0000000000000000e+00  1.5726427543307292e-01 -3.1176299086668031e-04 0.0000000000000000e+00  4.7104176496728584e-01 7.8975824316599070e-04 0.0000000000000000e+00  4.7299389538070619e-01 8.3317554425881555e-04 0.0000000000000000e+00  1.6326655128116846e-01 -2.2571110605982194e-04 0.0000000000000000e+00  1.8777726104970496e-01 -7.4123563251960898e-04 0.0000000000000000e+00  4.1966708087862242e-01 -5.8643113649541872e-03 0.0000000000000000e+00  5.3238722634417113e-01 -2.0320890076851967e-02 0.0000000000000000e+00  </DataArray> 
</PointData> 
</Piece>
</UnstructuredGrid>
</VTKFile>