<?xml version="1.0"?>
<VTKFile type="UnstructuredGrid"  version="0.1"  >
<UnstructuredGrid>
<Piece  NumberOfPoints="104" NumberOfCells="170">
<Points>
<DataArray  type="Float64"  NumberOfComponents="3"  format="ascii">1.835188936345112 0.2050000000000699 0  1.838465412967181 0.2953145553852501 0  1.915883512473161 0.2050000000000692 0  1.833166318986108 0.1007828475280248 0  2.383594446803656 0.41 0  2.271253957291315 0.41 0  2.346386298105263 0.3062476289039515 0  1.943162250261133 0.2848182236928814 0  1.943162250261127 0.1251817763071746 0  2.244824738199097 0.3091885999356265 0  1.317087908068179 0.2834507950760127 0  1.416789257258389 0.3075294577736497 0  1.357724299039236 0.2303555143487852 0  2.383594446803425 0 0  2.301748441448983 0.1032848369023014 0  2.415100580332905 0.08367007402675902 0  1.674965418778818 0.41 0  1.58737143976041 0.41 0  1.617304647871871 0.3102553946317155 0  1.587371439758838 0 0  1.674965418777374 0 0  1.627799041349754 0.08170835291169204 0  2.01253088870001 0.2050000000000507 0  1.419591277297145 0.2050000000000071 0  1.421253448505726 0.41 0  1.355827918100823 0.3414955155607449 0  1.421253448503939 0 0  1.418271536314166 0.09353562972960013 0  1.355827918100725 0.06850448443910542 0  2.271253957290865 0 0  2.221794121152559 0.193316850609006 0  2.14411344490712 0.1276195594235362 0  2.20472152769965 0.0713281875562741 0  2.162836591190598 0.41 0  2.147307993563104 0.2912592059815138 0  2.038256300678318 0.30845338105422 0  2.047027225616214 0.1093313109621388 0  1.481410117014457 0.06937107043222147 0  1.48141011701467 0.3406289295679558 0  1.524155460997452 0.2819410593007779 0  1.564450317521975 0.2271796767815198 0  1.465985145565885 0.2641043271703594 0  1.266535089879536 0 0  1.342519516046404 0 0  1.279016580461126 0.07083697001675755 0  1.342519516048286 0.41 0  1.274599158297837 0.3398495556128484 0  2.108400983319523 0.2055533675589543 0  2.373655112860451 0.1537499999996177 0  1.628719644697639 0.2049999999998413 0  1.211433695886656 0.1017136889209831 0  1.154904552424504 0.06969164993518225 0  1.171970583870903 0.1546087622866204 0  1.701137648393037 0.3376494258761434 0  1.700761363836473 0.07263158433296307 0  2.102498890674862 0.3526963313409883 0  1.313454781190754 0.1289288827375083 0  1.297747271073664 0.2033748759239161 0  1.375324131717186 0.1546989106163036 0  1.545933585256563 0.3495591173405724 0  1.675302090383742 0.2650203692236395 0  1.552569533868087 0.0624528013784801 0  1.859776908881246 0.41 0  1.77165877836765 0.3410140663813219 0  1.859776908880082 0 0  1.771658778367727 0.06898593361867472 0  1.765729001826854 0.41 0  1.765729001825544 0 0  1.518790312518014 0.1283243218597927 0  1.503227144622031 0.2021724267143327 0  1.582623387495486 0.1516962052714668 0  2.419800870255347 0.3337695350602363 0  1.255220929810424 0.1520691346915538 0  1.502836389106271 0 0  1.502836389107956 0.41 0  1.193204177141305 0 0  1.221874249400422 0.04798078752710374 0  1.215451113850732 0.2103314603357224 0  1.731954290521287 0.2842886317693051 0  1.779077369991058 0.2291039503226278 0  1.249863529963017 0.2672258935273379 0  2.317206511801082 0.2150857089256538 0  2.5 0 0  1.781967815577297 0.1551145542927359 0  2.5 0.2049999999994743 0  2.5 0.3074999999997183 0  2.416929161926448 0.2327464213792422 0  2.5 0.1024999999997612 0  2.5 0.41 0  1.909407874218324 0.3475920460897405 0  1.898307784123137 0.0640781879350478 0  2.058205329870775 0.41 0  1.957227977488067 0.41 0  1.976157046732302 0.3420030364334853 0  1.957227977487062 0 0  2.058205329869943 0 0  1.976157046732181 0.06799696356641864 0  1.455141435660884 0.1456544069830235 0  1.728567729514045 0.1282404601140156 0  1.712479779067637 0.2028183087747138 0  2.116985070695456 0.06169297422380063 0  2.162836591189951 0 0  1.665417171861409 0.1438806335169778 0  2.443165304650843 0.1549388660538532 0  </DataArray>
</Points>
<Cells>
<DataArray  type="UInt32"  Name="connectivity"  format="ascii">0 1 2  0 3 2  4 5 6  7 1 2  8 3 2  5 6 9  10 11 12  13 14 15  16 17 18  19 20 21  22 7 2  22 8 2  23 11 12  24 11 25  26 27 28  29 13 14  30 31 32  33 34 9  10 11 25  22 7 35  22 8 36  26 27 37  24 11 38  39 18 40  23 11 41  42 43 44  30 14 32  45 46 25  43 44 28  22 35 47  22 36 47  48 14 15  49 18 40  50 51 52  34 35 47  31 36 47  16 18 53  20 21 54  33 34 55  30 34 47  30 31 47  56 57 58  39 18 59  49 18 60  57 12 58  5 33 9  17 18 59  19 21 61  24 45 25  43 26 28  30 34 9  62 1 63  64 3 65  62 66 63  67 64 65  68 69 70  4 6 71  69 40 70  50 44 72  26 73 37  74 24 38  75 51 76  50 52 72  77 52 72  78 1 79  66 16 53  20 67 54  56 28 58  10 46 80  56 44 72  6 9 81  30 9 81  0 1 79  82 13 15  27 28 58  21 61 70  68 61 70  77 57 72  77 57 80  0 3 83  78 1 63  84 85 86  10 46 25  56 44 28  82 87 15  85 86 71  66 53 63  67 54 65  50 51 76  88 4 71  7 1 89  8 3 90  10 57 80  56 57 72  91 92 93  94 95 96  91 35 93  95 36 96  10 57 12  88 85 71  48 14 81  11 38 41  27 37 97  62 1 89  64 3 90  30 14 81  73 19 61  17 74 59  39 38 41  68 37 97  98 99 83  27 58 97  23 58 97  99 79 83  34 35 55  31 36 100  101 29 32  92 62 89  64 94 90  23 12 58  74 38 59  73 37 61  7 35 93  8 36 96  75 42 76  23 69 41  23 69 97  29 14 32  39 69 41  68 69 97  33 91 55  95 101 100  91 35 55  95 36 100  39 69 40  42 44 76  6 86 71  39 38 59  68 37 61  101 32 100  18 53 60  21 54 102  50 44 76  87 84 103  21 70 102  49 70 102  31 32 100  78 53 60  98 54 102  98 65 83  49 99 102  49 99 60  49 40 70  3 65 83  98 99 102  78 99 60  78 53 63  98 54 65  92 89 93  94 90 96  48 86 81  78 99 79  6 86 81  0 79 83  87 15 103  7 89 93  8 90 96  84 86 103  48 15 103  48 86 103  </DataArray>
<DataArray  type="UInt32"  Name="offsets"  format="ascii">3 6 9 12 15 18 21 24 27 30 33 36 39 42 45 48 51 54 57 60 63 66 69 72 75 78 81 84 87 90 93 96 99 102 105 108 111 114 117 120 123 126 129 132 135 138 141 144 147 150 153 156 159 162 165 168 171 174 177 180 183 186 189 192 195 198 201 204 207 210 213 216 219 222 225 228 231 234 237 240 243 246 249 252 255 258 261 264 267 270 273 276 279 282 285 288 291 294 297 300 303 306 309 312 315 318 321 324 327 330 333 336 339 342 345 348 351 354 357 360 363 366 369 372 375 378 381 384 387 390 393 396 399 402 405 408 411 414 417 420 423 426 429 432 435 438 441 444 447 450 453 456 459 462 465 468 471 474 477 480 483 486 489 492 495 498 501 504 507 510 </DataArray>
<DataArray  type="UInt8"  Name="types"  format="ascii">5 5 5 5 5 5 5 5 5 5 5 5 5 5 5 5 5 5 5 5 5 5 5 5 5 5 5 5 5 5 5 5 5 5 5 5 5 5 5 5 5 5 5 5 5 5 5 5 5 5 5 5 5 5 5 5 5 5 5 5 5 5 5 5 5 5 5 5 5 5 5 5 5 5 5 5 5 5 5 5 5 5 5 5 5 5 5 5 5 5 5 5 5 5 5 5 5 5 5 5 5 5 5 5 5 5 5 5 5 5 5 5 5 5 5 5 5 5 5 5 5 5 5 5 5 5 5 5 5 5 5 5 5 5 5 5 5 5 5 5 5 5 5 5 5 5 5 5 5 5 5 5 5 5 5 5 5 5 5 5 5 5 5 5 5 5 5 5 5 5 </DataArray>
</Cells>
<PointData  Vectors="f_43-0"> 
<DataArray  type="Float64"  Name="f_43-0"  NumberOfComponents="3" format="ascii">1.1828248856721939e-01 -4.2489386504693721e-05 0.0000000000000000e+00  1.1196934410431141e-01 7.1158829312368155e-04 0.0000000000000000e+00  1.1815270213634868e-01 -5.0851155665481371e-05 0.0000000000000000e+00  1.1295431894583928e-01 -7.8965819818403228e-04 0.0000000000000000e+00  0.0000000000000000e+00 0.0000000000000000e+00 0.0000000000000000e+00  0.0000000000000000e+00 0.0000000000000000e+00 0.0000000000000000e+00  1.0042674109289164e-01 7.2362024309361144e-04 0.0000000000000000e+00  1.1795590846212820e-01 2.4837457342623422e-04 0.0000000000000000e+00  1.1796055817389145e-01 -3.1205957305194916e-04 0.0000000000000000e+00  1.0477651847119357e-01 -3.1419345918864066e-04 0.0000000000000000e+00  1.1773568495052374e-01 -8.4721295345399820e-05 0.0000000000000000e+00  1.1247854370721017e-01 2.5321055038637929e-04 0.0000000000000000e+00  1.1841387654294248e-01 4.9424695417111638e-05 0.0000000000000000e+00  0.0000000000000000e+00 0.0000000000000000e+00 0.0000000000000000e+00  1.0229669159986983e-01 5.0338022869674426e-04 0.0000000000000000e+00  1.0499721324491454e-01 -6.8545885536643004e-04 0.0000000000000000e+00  0.0000000000000000e+00 0.0000000000000000e+00 0.0000000000000000e+00  0.0000000000000000e+00 0.0000000000000000e+00 0.0000000000000000e+00  1.0229283594945837e-01 -1.8225013022329838e-04 0.0000000000000000e+00  0.0000000000000000e+00 0.0000000000000000e+00 0.0000000000000000e+00  0.0000000000000000e+00 0.0000000000000000e+00 0.0000000000000000e+00  1.0429351019187959e-01 9.6755476091213387e-05 0.0000000000000000e+00  1.1831640186062170e-01 -1.0735020423908329e-04 0.0000000000000000e+00  1.1852082577661219e-01 -1.6576127414492587e-05 0.0000000000000000e+00  0.0000000000000000e+00 0.0000000000000000e+00 0.0000000000000000e+00  1.0979515107771054e-01 -4.4798463646461865e-04 0.0000000000000000e+00  0.0000000000000000e+00 0.0000000000000000e+00 0.0000000000000000e+00  1.1255219147165799e-01 -3.0221343942816423e-04 0.0000000000000000e+00  1.0976804084292846e-01 4.1482092317054981e-04 0.0000000000000000e+00  0.0000000000000000e+00 0.0000000000000000e+00 0.0000000000000000e+00  1.1625531075587794e-01 -1.2312444716733922e-04 0.0000000000000000e+00  1.1870380957414499e-01 -1.2882232045220227e-04 0.0000000000000000e+00  1.0823446731342430e-01 7.6984467520683619e-04 0.0000000000000000e+00  0.0000000000000000e+00 0.0000000000000000e+00 0.0000000000000000e+00  1.1246568281215412e-01 6.5871700543082657e-05 0.0000000000000000e+00  1.1253213221117175e-01 2.3946275614466849e-04 0.0000000000000000e+00  1.1277475167174070e-01 -4.5623579300613850e-04 0.0000000000000000e+00  1.0985897992736857e-01 -2.9424456243111951e-04 0.0000000000000000e+00  1.1025192371322803e-01 2.8948028457258826e-04 0.0000000000000000e+00  1.1742145912398952e-01 1.7810527779393734e-04 0.0000000000000000e+00  1.1797857494792090e-01 3.0248595533201566e-04 0.0000000000000000e+00  1.1876621728218684e-01 1.0385982384719479e-04 0.0000000000000000e+00  0.0000000000000000e+00 0.0000000000000000e+00 0.0000000000000000e+00  0.0000000000000000e+00 0.0000000000000000e+00 0.0000000000000000e+00  1.0674819654108646e-01 4.2000224112684212e-04 0.0000000000000000e+00  0.0000000000000000e+00 0.0000000000000000e+00 0.0000000000000000e+00  1.0656100882919695e-01 -4.0669272198063852e-04 0.0000000000000000e+00  1.1833267633274279e-01 -1.5819920826030994e-04 0.0000000000000000e+00  1.1931473242678872e-01 1.7853459556056391e-04 0.0000000000000000e+00  1.1803984563798266e-01 -1.3137596132887198e-05 0.0000000000000000e+00  1.1803188862965852e-01 -2.2513050330571357e-04 0.0000000000000000e+00  1.0930899986053753e-01 -1.5629404960398961e-04 0.0000000000000000e+00  1.1792384660228086e-01 -3.9385576358349010e-05 0.0000000000000000e+00  1.0876234835493132e-01 6.2332663393611964e-04 0.0000000000000000e+00  1.0704842467123606e-01 9.0521310899465104e-05 0.0000000000000000e+00  1.1297713293883453e-01 -1.3185080103834327e-03 0.0000000000000000e+00  1.1841355729974322e-01 1.0949538233646921e-04 0.0000000000000000e+00  1.1849002827257062e-01 -5.3101835265840209e-05 0.0000000000000000e+00  1.1800489685766218e-01 -6.7568411422364058e-06 0.0000000000000000e+00  1.1098228588857431e-01 -8.0683137400212488e-04 0.0000000000000000e+00  1.1893831914218012e-01 1.2216246457332587e-04 0.0000000000000000e+00  1.1043835327042373e-01 9.7561575285309593e-05 0.0000000000000000e+00  0.0000000000000000e+00 0.0000000000000000e+00 0.0000000000000000e+00  1.0854421468173944e-01 -5.2461864651001884e-05 0.0000000000000000e+00  0.0000000000000000e+00 0.0000000000000000e+00 0.0000000000000000e+00  1.0845436138464168e-01 4.9514164162203062e-04 0.0000000000000000e+00  0.0000000000000000e+00 0.0000000000000000e+00 0.0000000000000000e+00  0.0000000000000000e+00 0.0000000000000000e+00 0.0000000000000000e+00  1.1854453485440286e-01 -2.2961468368775729e-04 0.0000000000000000e+00  1.1866529836567598e-01 -4.2752504326734772e-05 0.0000000000000000e+00  1.1767974561421715e-01 -2.5551040939623303e-04 0.0000000000000000e+00  1.0646553744976951e-01 1.2269978458144684e-03 0.0000000000000000e+00  1.1775775424533985e-01 -1.9358941635510524e-04 0.0000000000000000e+00  0.0000000000000000e+00 0.0000000000000000e+00 0.0000000000000000e+00  0.0000000000000000e+00 0.0000000000000000e+00 0.0000000000000000e+00  0.0000000000000000e+00 0.0000000000000000e+00 0.0000000000000000e+00  1.1349552383105974e-01 -6.5126341804521738e-04 0.0000000000000000e+00  1.1834039811329507e-01 -2.7547623369071872e-05 0.0000000000000000e+00  1.1765772489828126e-01 1.7113996376393490e-04 0.0000000000000000e+00  1.1851599787810184e-01 1.7599840574032089e-04 0.0000000000000000e+00  1.1777177886379536e-01 1.2692222101843599e-04 0.0000000000000000e+00  1.1719633394912238e-01 4.0916705717098224e-04 0.0000000000000000e+00  0.0000000000000000e+00 0.0000000000000000e+00 0.0000000000000000e+00  1.1797861245197498e-01 -1.2623856819967433e-04 0.0000000000000000e+00  1.1882049933725079e-01 1.7390293471400344e-04 0.0000000000000000e+00  1.1324350435050230e-01 -1.5694671871644829e-03 0.0000000000000000e+00  1.1814367648157412e-01 -1.2046913622426109e-04 0.0000000000000000e+00  1.1395140841718583e-01 1.7674387260760975e-03 0.0000000000000000e+00  0.0000000000000000e+00 0.0000000000000000e+00 0.0000000000000000e+00  1.1138271595205480e-01 3.9542976112965023e-04 0.0000000000000000e+00  1.1059571156472656e-01 -8.3742803589801146e-05 0.0000000000000000e+00  0.0000000000000000e+00 0.0000000000000000e+00 0.0000000000000000e+00  0.0000000000000000e+00 0.0000000000000000e+00 0.0000000000000000e+00  1.0583010266718801e-01 -2.1073037026965772e-04 0.0000000000000000e+00  0.0000000000000000e+00 0.0000000000000000e+00 0.0000000000000000e+00  0.0000000000000000e+00 0.0000000000000000e+00 0.0000000000000000e+00  1.0726771557102902e-01 -4.6373074917539875e-05 0.0000000000000000e+00  1.1870308288375164e-01 -2.1008174339905833e-04 0.0000000000000000e+00  1.1863918268894719e-01 3.0330641777183659e-05 0.0000000000000000e+00  1.1874171828597958e-01 1.0661524686679574e-04 0.0000000000000000e+00  1.1127793907322441e-01 3.7465265535705445e-05 0.0000000000000000e+00  0.0000000000000000e+00 0.0000000000000000e+00 0.0000000000000000e+00  1.1847596782357601e-01 -6.4932291583519341e-05 0.0000000000000000e+00  1.1878686023809101e-01 4.2268947990728700e-04 0.0000000000000000e+00  </DataArray> 
</PointData> 
</Piece>
</UnstructuredGrid>
</VTKFile>