<?xml version="1.0"?>
<VTKFile type="UnstructuredGrid"  version="0.1"  >
<UnstructuredGrid>
<Piece  NumberOfPoints="100" NumberOfCells="168">
<Points>
<DataArray  type="Float64"  NumberOfComponents="3"  format="ascii">0.3535460261755617 0.19 0  0.3528922713220932 0.2000185703532356 0  0.3590076176283495 0.196411355804271 0  0.3473758401723931 0.1961819304478349 0  0.3535460261749672 0.21 0  0.3473758401724931 0.2038180695522752 0  0.3590471196690275 0.2036304442587945 0  0.3796850840047755 0.200000000000134 0  0.3871533862418661 0.2029084173136212 0  0.3871533862424271 0.1959250838464788 0  0.3650630746574081 0.199866017807523 0  0.3722167817676917 0.2029084173136195 0  0.372246743208829 0.1959123236376545 0  0.3274069683451451 0.2000000000000796 0  0.3348752705822316 0.202908417313609 0  0.3347912413592433 0.1959225448935183 0  0.3127789816668748 0.1998657885438805 0  0.3199386661080599 0.202908417313604 0  0.3199680582793816 0.1959123018030061 0  0.3417402379596385 0.1998691686391011 0  0.3684826306491596 0.21 0  0.3759509328862226 0.21 0  0.3311411194636928 0.21 0  0.3386094217007701 0.21 0  0.383419235123329 0.21 0  0.3908875373604028 0.21 0  0.3460777239384295 0.19 0  0.3460777239378666 0.21 0  0.3087362127527544 0.19 0  0.3012679105156187 0.19 0  0.3066757059912147 0.1964092924317024 0  0.361014328412667 0.19 0  0.3796850840055151 0.1943028057712579 0  0.3647484795312433 0.1943028057712484 0  0.3274069683455914 0.1943028057712305 0  0.3124703638713219 0.1943028057712193 0  0.3610143284120516 0.21 0  0.341834128962283 0.1943988119061815 0  0.3650260178642469 0.2054197153269502 0  0.3796850840047754 0.2056971942288865 0  0.3274069683451451 0.2056971942288527 0  0.341845332858566 0.2054104280253135 0  0.3908875373612097 0.19 0  0.3834192351240934 0.19 0  0.3759509328869369 0.19 0  0.3684826306498175 0.19 0  0.3386094217012945 0.19 0  0.3311411194641595 0.19 0  0.3236728172270245 0.19 0  0.3162045149898895 0.19 0  0.3655464778159961 0.1466879707354811 0  0.3738358170836363 0.1565872175614931 0  0.383930166391577 0.149077512173999 0  0.3418349201952718 0.1615259010424026 0  0.3538118084207602 0.155339561103512 0  0.3411001259021957 0.1498303228783227 0  0.3422976980851364 0.1814371791041619 0  0.3871183818181629 0.1813492091082587 0  0.3803545031770169 0.2233799225275491 0  0.3797734699465006 0.2157346552691785 0  0.3868315570898186 0.2161590584307608 0  0.3298647941762166 0.154951077946048 0  0.3304301052933576 0.1665413931712652 0  0.3527566348301668 0.1449455739485435 0  0.3342547353003448 0.176221364131867 0  0.3420590264647178 0.171174416987776 0  0.3125543224194783 0.1825714068210268 0  0.3272791508030818 0.1825813053721834 0  0.3572801772935104 0.2173273935815939 0  0.3722102571583817 0.2173806806735415 0  0.3647484950731696 0.1690362455853913 0  0.3534047339781095 0.1664079800909994 0  0.3646043070190422 0.1595814785132252 0  0.3573906953035386 0.1825704874733474 0  0.3721062650880237 0.1825704912629938 0  0.334769373574778 0.1838585991320073 0  0.3758459195692864 0.1665688727818971 0  0.3498118750569956 0.1834818329761723 0  0.3796850840055151 0.1834818329761566 0  0.350235271979906 0.176105405901683 0  0.3198867512741007 0.1691875758392534 0  0.3199291472277772 0.1784487091275169 0  0.3133418865444516 0.1745347694704089 0  0.3264689647572548 0.1745410252268062 0  0.3871533862426517 0.1622083790690482 0  0.30960746080092 0.166771572284543 0  0.3198495352051576 0.1594009174606977 0  0.3792616967340072 0.1761054533295981 0  0.3052148703289762 0.176135200920133 0  0.3050224637686886 0.1840003691157356 0  0.3647484799225001 0.1783360555704042 0  0.3580172190788822 0.1744509634985612 0  0.3714797435049115 0.1744509558619459 0  0.3716385577875085 0.2254972730720332 0  0.3870163828938027 0.1711802904735331 0  0.3497998287380586 0.2162289176852799 0  0.3199315490584526 0.1848904494130124 0  0.3647474910084925 0.215095947068514 0  0.3647484797606208 0.1848841839272463 0  0.364747590224077 0.2216658739063822 0  </DataArray>
</Points>
<Cells>
<DataArray  type="UInt32"  Name="connectivity"  format="ascii">0 1 2  0 1 3  4 1 5  4 1 6  7 8 9  10 11 12  13 14 15  16 17 18  13 17 18  19 14 15  7 11 12  20 21 11  22 23 14  24 25 8  0 26 3  27 4 5  28 29 30  31 0 2  7 9 32  10 12 33  13 15 34  16 18 35  13 18 34  7 12 32  4 36 6  19 15 37  20 11 38  21 11 39  10 11 38  24 8 39  22 14 40  7 8 39  7 11 39  13 17 40  13 14 40  23 14 41  19 14 41  42 43 9  44 45 12  46 47 15  48 49 18  10 2 6  1 2 6  44 12 32  43 9 32  45 12 33  47 15 34  49 18 35  48 18 34  1 5 3  19 5 3  46 15 37  10 6 38  26 46 37  23 27 41  43 44 32  45 31 33  36 20 38  21 24 39  47 48 34  49 28 35  36 6 38  10 2 33  31 2 33  16 30 35  28 30 35  26 3 37  27 5 41  19 5 41  19 3 37  50 51 52  53 54 55  26 46 56  42 43 57  58 59 60  53 61 62  54 55 63  64 62 65  53 62 65  49 28 66  47 48 67  4 36 68  20 21 69  70 71 72  31 0 73  44 45 74  46 56 75  70 76 72  26 56 77  53 54 71  43 57 78  58 69 59  79 73 77  80 81 82  80 81 83  84 51 76  64 67 75  80 85 86  87 74 78  53 61 55  80 62 86  88 66 89  79 56 65  64 56 65  70 90 91  70 90 92  58 69 93  79 71 65  84 51 52  87 57 94  27 4 95  28 29 89  46 47 75  88 66 82  64 67 83  21 24 59  0 26 77  79 73 91  70 91 71  43 44 78  54 71 72  70 92 76  28 66 89  87 74 92  51 76 72  87 76 94  47 67 75  4 68 95  21 69 59  0 73 77  79 56 77  44 74 78  61 62 86  53 71 65  49 66 96  64 56 75  87 57 78  48 67 96  36 68 97  20 69 97  31 73 98  45 74 98  24 25 60  84 76 94  50 54 72  50 51 72  88 85 82  24 59 60  81 66 82  80 85 82  81 67 83  50 54 63  79 91 71  99 69 93  64 62 83  80 62 83  87 92 76  90 73 91  90 74 92  81 66 96  81 67 96  48 49 96  99 68 97  36 20 97  99 69 97  45 31 98  90 73 98  90 74 98  </DataArray>
<DataArray  type="UInt32"  Name="offsets"  format="ascii">3 6 9 12 15 18 21 24 27 30 33 36 39 42 45 48 51 54 57 60 63 66 69 72 75 78 81 84 87 90 93 96 99 102 105 108 111 114 117 120 123 126 129 132 135 138 141 144 147 150 153 156 159 162 165 168 171 174 177 180 183 186 189 192 195 198 201 204 207 210 213 216 219 222 225 228 231 234 237 240 243 246 249 252 255 258 261 264 267 270 273 276 279 282 285 288 291 294 297 300 303 306 309 312 315 318 321 324 327 330 333 336 339 342 345 348 351 354 357 360 363 366 369 372 375 378 381 384 387 390 393 396 399 402 405 408 411 414 417 420 423 426 429 432 435 438 441 444 447 450 453 456 459 462 465 468 471 474 477 480 483 486 489 492 495 498 501 504 </DataArray>
<DataArray  type="UInt8"  Name="types"  format="ascii">5 5 5 5 5 5 5 5 5 5 5 5 5 5 5 5 5 5 5 5 5 5 5 5 5 5 5 5 5 5 5 5 5 5 5 5 5 5 5 5 5 5 5 5 5 5 5 5 5 5 5 5 5 5 5 5 5 5 5 5 5 5 5 5 5 5 5 5 5 5 5 5 5 5 5 5 5 5 5 5 5 5 5 5 5 5 5 5 5 5 5 5 5 5 5 5 5 5 5 5 5 5 5 5 5 5 5 5 5 5 5 5 5 5 5 5 5 5 5 5 5 5 5 5 5 5 5 5 5 5 5 5 5 5 5 5 5 5 5 5 5 5 5 5 5 5 5 5 5 5 5 5 5 5 5 5 5 5 5 5 5 5 5 5 5 5 5 5 </DataArray>
</Cells>
<PointData  Vectors="f_43-0"> 
<DataArray  type="Float64"  Name="f_43-0"  NumberOfComponents="3" format="ascii">-4.0670116377963563e-05 -9.4991274873476030e-05 0.0000000000000000e+00  -7.4088278129690014e-05 -9.0508875478510225e-05 0.0000000000000000e+00  -6.3789041159922864e-05 -7.1874768957186808e-05 0.0000000000000000e+00  -5.9810219657993222e-05 -1.0951413380237164e-04 0.0000000000000000e+00  -1.0845626779254384e-04 -7.2919672175943484e-05 0.0000000000000000e+00  -7.9780318221906317e-05 -1.0110861659962038e-04 0.0000000000000000e+00  -9.3993138374355017e-05 -6.3718009256989261e-05 0.0000000000000000e+00  -9.5281062976410163e-05 4.6787119593149434e-05 0.0000000000000000e+00  -1.2555228907374847e-04 1.0814580791506253e-04 0.0000000000000000e+00  -6.7643958728402171e-05 1.0071191308721075e-04 0.0000000000000000e+00  -8.2858350555360251e-05 -4.1519014518013616e-05 0.0000000000000000e+00  -1.0690318987779716e-04 1.3486488162384649e-06 0.0000000000000000e+00  -6.4433493157249396e-05 -5.8568204403277984e-06 0.0000000000000000e+00  -5.4780811389730327e-05 -1.2948756899365838e-04 0.0000000000000000e+00  -6.3589066293856327e-05 -1.2270746896442204e-04 0.0000000000000000e+00  -5.5803623502908423e-05 -1.3013912479242521e-04 0.0000000000000000e+00  -4.4160286910925455e-05 -1.1999685985616008e-04 0.0000000000000000e+00  -4.8224750008589317e-05 -1.2356075741116009e-04 0.0000000000000000e+00  -5.0807795291127350e-05 -1.3098846499617033e-04 0.0000000000000000e+00  -6.5256281859309533e-05 -1.1764505400327115e-04 0.0000000000000000e+00  -1.4137088052901823e-04 -7.7197298360682660e-06 0.0000000000000000e+00  -1.5844781446325965e-04 3.7251976223683332e-05 0.0000000000000000e+00  -6.3992007403665619e-05 -1.1417068654770554e-04 0.0000000000000000e+00  -7.7983330572104401e-05 -1.0732178340640326e-04 0.0000000000000000e+00  -1.7578600047135713e-04 9.0708697976167965e-05 0.0000000000000000e+00  -1.9321603937255319e-04 1.5270956653817865e-04 0.0000000000000000e+00  -4.4801902246531508e-05 -1.1577675886160128e-04 0.0000000000000000e+00  -9.2847918000343250e-05 -9.3765889871916396e-05 0.0000000000000000e+00  -5.3936201157444658e-05 -1.2292023237738044e-04 0.0000000000000000e+00  -5.2498541814688829e-05 -1.1013026348518727e-04 0.0000000000000000e+00  -4.4297779592152084e-05 -1.1439426872744214e-04 0.0000000000000000e+00  -3.6121144125633264e-05 -6.6491096728261113e-05 0.0000000000000000e+00  -5.4415577135913855e-05 4.2023931134395690e-05 0.0000000000000000e+00  -5.4920156713041445e-05 -4.7690196269817970e-05 0.0000000000000000e+00  -5.3031687966822576e-05 -1.3465527835227880e-04 0.0000000000000000e+00  -4.9320860053242087e-05 -1.2491815741501791e-04 0.0000000000000000e+00  -1.2465118386916998e-04 -4.4348918070817973e-05 0.0000000000000000e+00  -5.4877325712066486e-05 -1.2223417553983246e-04 0.0000000000000000e+00  -1.1073685491588645e-04 -3.4146688276110118e-05 0.0000000000000000e+00  -1.3620043896377598e-04 5.4757695879057913e-05 0.0000000000000000e+00  -5.6548935548831921e-05 -1.2218838980539333e-04 0.0000000000000000e+00  -7.5955281087198846e-05 -1.1020224629587776e-04 0.0000000000000000e+00  -1.6065056869108783e-05 1.3021368652027190e-04 0.0000000000000000e+00  -2.1079326619776841e-05 6.8303722983083909e-05 0.0000000000000000e+00  -2.6184773022280768e-05 1.4938804820961945e-05 0.0000000000000000e+00  -3.1237139917246374e-05 -2.9941194285108367e-05 0.0000000000000000e+00  -4.8345191109017777e-05 -1.2928440880079740e-04 0.0000000000000000e+00  -5.1152577351340084e-05 -1.3607386682701534e-04 0.0000000000000000e+00  -5.3115665148644600e-05 -1.3677747716528657e-04 0.0000000000000000e+00  -5.4082907690535495e-05 -1.3212510281941655e-04 0.0000000000000000e+00  9.9460031683894945e-01 1.2075783288772901e-01 0.0000000000000000e+00  3.1023984289585727e-01 5.2151206924328231e-02 0.0000000000000000e+00  9.7145933389020467e-01 1.5076905178624087e-01 0.0000000000000000e+00  -1.1626397897581367e-01 -2.3115116698579449e-02 0.0000000000000000e+00  2.5468969424966120e-01 2.1643491149845685e-02 0.0000000000000000e+00  5.4135737757682212e-01 3.3804315914981897e-02 0.0000000000000000e+00  -3.1997776313892223e-01 -1.2620627755905891e-02 0.0000000000000000e+00  -4.0182384539287841e-01 -7.7503538535494080e-03 0.0000000000000000e+00  -4.4259096093049005e-01 1.3929735043305637e-02 0.0000000000000000e+00  -3.0194596298432680e-01 5.3960025090372971e-03 0.0000000000000000e+00  -3.2770050909097032e-01 5.2285111951553302e-03 0.0000000000000000e+00  1.5107712322226755e-01 -1.4444195900867330e-02 0.0000000000000000e+00  -2.8828636453661399e-01 -3.9428989260011829e-02 0.0000000000000000e+00  1.0333294958531221e+00 9.8990978866076815e-02 0.0000000000000000e+00  -3.7567123451244361e-01 -2.5342184675674822e-02 0.0000000000000000e+00  -3.7359914663478649e-01 -3.1949274373523892e-02 0.0000000000000000e+00  -2.2364210351779051e-01 -1.0101911213919228e-02 0.0000000000000000e+00  -2.5743080249271105e-01 -1.0093246686111236e-02 0.0000000000000000e+00  -3.1432258965764848e-01 9.0886059195146463e-03 0.0000000000000000e+00  -3.4486067731289144e-01 8.4263389537689477e-03 0.0000000000000000e+00  -3.2494991885990687e-01 -1.8345486746519483e-02 0.0000000000000000e+00  -2.6588119598540871e-01 -2.3257388510176332e-02 0.0000000000000000e+00  7.0368459364408553e-02 1.4645868887435907e-02 0.0000000000000000e+00  -3.2346053730178881e-01 -9.6695348702719678e-03 0.0000000000000000e+00  -3.5084395362410797e-01 -8.7413463844967804e-03 0.0000000000000000e+00  -2.3862392615134584e-01 -7.4386220777864038e-03 0.0000000000000000e+00  -2.1216274256334935e-01 1.6564174388998310e-04 0.0000000000000000e+00  -2.8069783006067861e-01 -8.1120180609810522e-03 0.0000000000000000e+00  -3.3453368841242276e-01 -6.5478495969057337e-03 0.0000000000000000e+00  -4.0798421960071968e-01 -2.3482414269646958e-02 0.0000000000000000e+00  -3.2485987481440115e-01 -4.1637395424407093e-02 0.0000000000000000e+00  -3.1729572151368557e-01 -2.0690696967938856e-02 0.0000000000000000e+00  -3.3193684463549145e-01 -3.1596613311586669e-02 0.0000000000000000e+00  -3.6408123698350625e-01 -3.0173666903634478e-02 0.0000000000000000e+00  6.0182387946456042e-02 4.2170290195529772e-02 0.0000000000000000e+00  -2.7918786203703355e-01 -4.8533466698216600e-02 0.0000000000000000e+00  -8.3535422994027636e-02 -3.9163240619958552e-02 0.0000000000000000e+00  -4.3596758416333620e-01 -1.3569344039681705e-02 0.0000000000000000e+00  -2.9983593743954129e-01 -2.8196457646760462e-02 0.0000000000000000e+00  -1.7376345413459904e-01 -7.0832321547208595e-03 0.0000000000000000e+00  -4.1804889496426662e-01 -1.6894159894450592e-02 0.0000000000000000e+00  -4.1647758748498254e-01 -2.3368867777227822e-02 0.0000000000000000e+00  -4.2286391768971915e-01 -1.8069786809436210e-02 0.0000000000000000e+00  -4.2903926115536828e-01 1.9231154933691458e-02 0.0000000000000000e+00  -3.3919853840289621e-01 -7.2957918501745888e-04 0.0000000000000000e+00  -2.6528511132554405e-01 7.1037311626134065e-03 0.0000000000000000e+00  -1.7917139096489712e-01 -5.3106845772470232e-03 0.0000000000000000e+00  -2.5296156352661064e-01 4.8970661522248059e-03 0.0000000000000000e+00  -2.5912044630951114e-01 -5.2197306950517268e-03 0.0000000000000000e+00  -4.1573682161784853e-01 1.7004421088200054e-02 0.0000000000000000e+00  </DataArray> 
</PointData> 
</Piece>
</UnstructuredGrid>
</VTKFile>