<?xml version="1.0"?>
<VTKFile type="UnstructuredGrid"  version="0.1"  >
<UnstructuredGrid>
<Piece  NumberOfPoints="101" NumberOfCells="169">
<Points>
<DataArray  type="Float64"  NumberOfComponents="3"  format="ascii">0.6 0.21 0  0.5925316977628483 0.21 0  0.5955705746706843 0.2069223055301326 0  0.5887803774232762 0.2001272386983733 0  0.5814408164431408 0.2041285596160068 0  0.5893814947531364 0.2056233639521408 0  0.6 0.2 0  0.6 0.1950000000000217 0  0.594380730180568 0.1966558399668133 0  0.5946539510196798 0.2024302972968126 0  0.6 0.2050000000000054 0  0.5775950932886138 0.21 0  0.5850633955257281 0.21 0  0.6300528284996487 0.2292604486710743 0  0.65429728832161 0.2353880751391984 0  0.6456429596876728 0.2209784072651823 0  0.5740383564454857 0.232486177523615 0  0.5800331369475803 0.2220172718503647 0  0.5872716114964233 0.2289047791562547 0  0.589683001657349 0.3059206033515077 0  0.629251049118315 0.3129131677620721 0  0.6129037791821019 0.2898142990521698 0  0.5669464924360815 0.2475839849813879 0  0.5841951273902199 0.2421589553533847 0  0.5678918321244223 0.2848057098346606 0  0.5916500441695769 0.2809526698769227 0  0.5813292444071699 0.2563523755659055 0  0.5593867837568711 0.2625481287604455 0  0.6158241656144056 0.2465955912391796 0  0.6368758304361363 0.2529361994816268 0  0.6156282497854896 0.2673949998438289 0  0.5926483197196849 0.2655989755524508 0  0.6034720826395079 0.3406552446218118 0  0.5561563723763112 0.3041501920577169 0  0.7014764931779993 0.1925000000000107 0  0.685561679424891 0.2295161340218305 0  0.6773925486195326 0.2026632733038183 0  0.6622141672544596 0.2596384679938497 0  0.5683897549737816 0.3290580395153129 0  0.6341981541449615 0.3582841585921612 0  0.6186516859309905 0.2076004596739355 0  0.6330574554272607 0.20858417289079 0  0.6200567937109939 0.1981193972299755 0  0.5688911489504639 0.2221570651130901 0  0.6659720908852078 0.2972353895876497 0  0.6940661166801609 0.2673943882596362 0  0.5989004035231642 0.2514987524731583 0  0.596265848881424 0.2354323641502947 0  0.6295540558938247 0.1924839069479658 0  0.6341710204839701 0.1765827244303529 0  0.6426099985752125 0.1947200777786613 0  0.615208009837415 0.2301771304243292 0  0.5487739828661812 0.2837987172973246 0  0.6210712537558437 0.2177951339896733 0  0.6711932754123612 0.1788117674793375 0  0.6570334029219593 0.3356135508988682 0  0.5631143150331265 0.2366473934541688 0  0.5768392741880191 0.2703425200264898 0  0.6100254542261326 0.2029134597827689 0  0.6109529519469615 0.19670324045761 0  0.5740261188292279 0.2158012409855351 0  0.6035153318756115 0.216380925869335 0  0.6045977536612152 0.2079044120944432 0  0.6993284284288891 0.3008982894693075 0  0.6641604129055072 0.2170430078016702 0  0.7176052736190859 0.2162836958912044 0  0.5962264926010817 0.2155692304460942 0  0.5886496198982827 0.2178532325665078 0  0.5869673343225223 0.41 0  0.5770529515268702 0.3629450529032476 0  0.6084037118460524 0.3780069571238127 0  0.5963374227678123 0.2233833965505087 0  0.6048429996566183 0.2280441552220857 0  0.7236859362722395 0.2517828338101294 0  0.6916151138480078 0.41 0  0.7140255670996881 0.3646166311524474 0  0.6689331958774321 0.3716842215281515 0  0.6209583882721262 0.1847010880111589 0  0.6140419833156984 0.1920012542761988 0  0.6389246510848009 0.278450010052455 0  0.6902890633484133 0.332151151267615 0  0.6065875229028267 0.1922148945199381 0  0.6047562880647869 0.1975000000000114 0  0.6104992711520371 0.2118453231978703 0  0.6513011150928492 0.1835167781725089 0  0.6503345442188976 0.208122535960376 0  0.6603908909116775 0.196660215430242 0  0.6107068242365286 0.2205343762889329 0  0.6065667631161428 0.2400998453881159 0  0.556227780909367 0.2515606281824664 0  0.6383613676644679 0.41 0  0.5588244563271773 0.225349035787779 0  0.5662965898088369 0.2290837557773043 0  0.7294932489647475 0.2840789881590486 0  0.5811564300792245 0.2152441767609544 0  0.6043492189278221 0.2025000000000026 0  0.6537520553764576 0.1680442900620985 0  0.6385847074107548 0.1562173919888177 0  0.6641520523959832 0.1503720468916702 0  0.6112872589661165 0.1855979267337469 0  0.7279457694224267 0.3237962213587685 0  </DataArray>
</Points>
<Cells>
<DataArray  type="UInt32"  Name="connectivity"  format="ascii">0 1 2  3 4 5  6 7 8  6 9 8  6 10 9  9 2 5  1 2 5  11 12 4  12 4 5  10 9 2  12 1 5  3 9 5  3 9 8  0 10 2  13 14 15  16 17 18  19 20 21  16 22 23  19 24 25  26 27 22  13 28 29  30 25 31  19 20 32  19 24 33  16 23 18  34 35 36  37 35 14  13 14 29  19 32 38  20 32 39  40 41 42  16 17 43  37 44 45  30 46 31  47 46 23  48 49 50  13 28 51  24 27 52  13 41 53  34 54 36  55 20 39  16 22 56  40 41 53  48 41 42  26 27 57  58 42 59  26 22 23  17 43 60  30 25 21  0 61 62  63 44 45  19 38 33  30 28 46  35 14 64  34 35 65  0 1 66  12 1 67  68 69 70  71 61 72  24 25 57  47 23 18  69 32 38  37 35 45  73 35 65  71 67 18  26 46 23  55 20 44  74 75 76  73 35 45  47 71 18  48 49 77  78 77 42  17 67 18  20 21 79  30 21 79  55 76 80  13 41 15  19 25 21  75 76 80  7 81 82  40 83 53  84 49 50  47 71 72  1 67 66  85 64 86  40 58 42  20 44 79  85 15 64  87 83 53  47 46 88  22 56 89  24 27 57  90 70 39  91 43 92  63 45 93  0 66 61  69 32 70  6 7 82  90 76 39  12 67 94  90 68 70  55 44 80  30 28 29  40 58 83  73 45 93  17 60 94  48 41 50  87 61 72  74 90 76  78 42 59  71 66 61  71 67 66  37 44 79  85 50 86  63 44 80  6 10 95  85 41 15  16 43 92  58 83 62  36 64 86  48 77 42  35 36 64  11 12 94  37 14 29  14 15 64  84 50 86  26 57 31  27 22 89  54 36 86  0 10 62  84 49 96  85 41 50  83 61 62  91 56 92  25 57 31  97 98 96  24 52 33  17 67 94  11 60 94  26 46 31  6 82 95  97 49 96  28 46 88  58 95 62  28 51 88  55 76 39  54 98 96  54 84 86  16 56 92  30 29 79  32 70 39  58 82 95  87 51 53  78 77 99  72 51 88  78 81 99  10 95 62  63 100 80  54 84 96  87 72 51  47 72 88  63 100 93  37 29 79  58 82 59  75 100 80  87 83 61  78 81 59  81 82 59  13 51 53  </DataArray>
<DataArray  type="UInt32"  Name="offsets"  format="ascii">3 6 9 12 15 18 21 24 27 30 33 36 39 42 45 48 51 54 57 60 63 66 69 72 75 78 81 84 87 90 93 96 99 102 105 108 111 114 117 120 123 126 129 132 135 138 141 144 147 150 153 156 159 162 165 168 171 174 177 180 183 186 189 192 195 198 201 204 207 210 213 216 219 222 225 228 231 234 237 240 243 246 249 252 255 258 261 264 267 270 273 276 279 282 285 288 291 294 297 300 303 306 309 312 315 318 321 324 327 330 333 336 339 342 345 348 351 354 357 360 363 366 369 372 375 378 381 384 387 390 393 396 399 402 405 408 411 414 417 420 423 426 429 432 435 438 441 444 447 450 453 456 459 462 465 468 471 474 477 480 483 486 489 492 495 498 501 504 507 </DataArray>
<DataArray  type="UInt8"  Name="types"  format="ascii">5 5 5 5 5 5 5 5 5 5 5 5 5 5 5 5 5 5 5 5 5 5 5 5 5 5 5 5 5 5 5 5 5 5 5 5 5 5 5 5 5 5 5 5 5 5 5 5 5 5 5 5 5 5 5 5 5 5 5 5 5 5 5 5 5 5 5 5 5 5 5 5 5 5 5 5 5 5 5 5 5 5 5 5 5 5 5 5 5 5 5 5 5 5 5 5 5 5 5 5 5 5 5 5 5 5 5 5 5 5 5 5 5 5 5 5 5 5 5 5 5 5 5 5 5 5 5 5 5 5 5 5 5 5 5 5 5 5 5 5 5 5 5 5 5 5 5 5 5 5 5 5 5 5 5 5 5 5 5 5 5 5 5 5 5 5 5 5 5 </DataArray>
</Cells>
<PointData  Vectors="f_43-0"> 
<DataArray  type="Float64"  Name="f_43-0"  NumberOfComponents="3" format="ascii">-2.4961277594128553e-04 4.1586914587385714e-03 0.0000000000000000e+00  -2.5098359798036198e-04 4.0694212953797512e-03 0.0000000000000000e+00  -2.1376365342959229e-04 4.1054131535899372e-03 0.0000000000000000e+00  -1.3365199225529774e-04 4.0232364816589995e-03 0.0000000000000000e+00  -1.8279735434849876e-04 3.9359620984620184e-03 0.0000000000000000e+00  -1.9927404080361303e-04 4.0311546530090335e-03 0.0000000000000000e+00  -1.3041149068284129e-04 4.1574464745839116e-03 0.0000000000000000e+00  -7.0489473483845077e-05 4.1568223499061970e-03 0.0000000000000000e+00  -9.1211040838824745e-05 4.0897294895202944e-03 0.0000000000000000e+00  -1.6028452410279064e-04 4.0938184869896413e-03 0.0000000000000000e+00  -1.9014431982033143e-04 4.1580691732473066e-03 0.0000000000000000e+00  -2.5373755690783487e-04 3.8905867893295840e-03 0.0000000000000000e+00  -2.5231459291552420e-04 3.9799836062224805e-03 0.0000000000000000e+00  1.3083893696922562e+00 -1.4182145299159379e-01 0.0000000000000000e+00  1.5101129346625413e+00 -1.3446316912835238e-01 0.0000000000000000e+00  9.7829493788983679e-01 -1.2446899618961151e-01 0.0000000000000000e+00  1.3059236169007256e+00 -7.0169181948611256e-02 0.0000000000000000e+00  8.9017250480752541e-01 -3.0295646806896184e-02 0.0000000000000000e+00  1.2259018225790204e+00 -6.7772849786654266e-02 0.0000000000000000e+00  2.0570500438826547e+00 -8.0739989478997964e-02 0.0000000000000000e+00  1.9629294051661799e+00 -5.3790707068319989e-02 0.0000000000000000e+00  2.1239420384327330e+00 -8.9329400886399291e-02 0.0000000000000000e+00  1.7733507550221315e+00 -1.1722078445124796e-01 0.0000000000000000e+00  1.6542401931656181e+00 -1.0584785782514951e-01 0.0000000000000000e+00  2.1916573274199549e+00 -1.1794272577218291e-01 0.0000000000000000e+00  2.1741642410232016e+00 -1.0983022551825879e-01 0.0000000000000000e+00  1.9981067636375389e+00 -1.2421130054867394e-01 0.0000000000000000e+00  2.0929107944089984e+00 -1.3675890787909364e-01 0.0000000000000000e+00  1.8022822360017612e+00 -1.3413817917997126e-01 0.0000000000000000e+00  1.9183490974749253e+00 -1.3293715172663312e-01 0.0000000000000000e+00  2.1147546778776207e+00 -1.1934527671868339e-01 0.0000000000000000e+00  2.1202751413245209e+00 -1.2123389357946661e-01 0.0000000000000000e+00  1.7638639222845145e+00 -3.7797565173288958e-02 0.0000000000000000e+00  2.1090644679754877e+00 -1.0791422142735645e-01 0.0000000000000000e+00  6.9232929178328806e-01 3.7584514102991101e-02 0.0000000000000000e+00  1.3635901699689450e+00 -1.1184117823966870e-01 0.0000000000000000e+00  5.3152760545585720e-01 -1.5415418836827807e-02 0.0000000000000000e+00  1.9831471078148979e+00 -1.1463568189731924e-01 0.0000000000000000e+00  1.9051903462571245e+00 -6.8493749586995209e-02 0.0000000000000000e+00  1.5202196825878966e+00 -1.1402979892518473e-02 0.0000000000000000e+00  2.1122519189262498e-01 -6.7783015770124633e-02 0.0000000000000000e+00  3.6368008838601951e-01 -7.7319415540400158e-02 0.0000000000000000e+00  7.5093397219910846e-02 2.3208821830432141e-02 0.0000000000000000e+00  8.5202615931831949e-01 -2.6585746181971671e-02 0.0000000000000000e+00  2.0163160447132422e+00 -5.6978985503970278e-02 0.0000000000000000e+00  2.0067089601131678e+00 -8.1433201888583259e-02 0.0000000000000000e+00  1.9089556638262832e+00 -1.2595208577083197e-01 0.0000000000000000e+00  1.4787147129649458e+00 -1.0395717216878989e-01 0.0000000000000000e+00  2.9004910477574330e-01 6.9967828798126533e-02 0.0000000000000000e+00  1.0509849051246154e+00 1.3722395493928166e-01 0.0000000000000000e+00  3.3226981497067204e-01 4.7109366140456459e-02 0.0000000000000000e+00  1.3296404427591559e+00 -1.3137819125779246e-01 0.0000000000000000e+00  2.2110674711311522e+00 -1.3592252462283136e-01 0.0000000000000000e+00  7.6417126326955864e-01 -1.3371212302450786e-01 0.0000000000000000e+00  1.0252330684188184e+00 1.0589767546304892e-01 0.0000000000000000e+00  1.7620184684265332e+00 -2.1474578191684048e-02 0.0000000000000000e+00  1.4125214603198650e+00 -8.5190677888163382e-02 0.0000000000000000e+00  2.1653975921270670e+00 -1.2317541769760063e-01 0.0000000000000000e+00  4.2796883867565888e-03 -1.0872983822732534e-02 0.0000000000000000e+00  1.5375328491935002e-02 2.5135851349363896e-02 0.0000000000000000e+00  4.8843283727418901e-01 -5.2302273743536519e-03 0.0000000000000000e+00  6.5284825787799106e-01 -9.7088524836854637e-02 0.0000000000000000e+00  7.0118433044424763e-02 -2.4089958028123443e-02 0.0000000000000000e+00  1.9622888450877121e+00 -3.6120942185518715e-02 0.0000000000000000e+00  8.7118824085126745e-01 -1.0103776019717782e-01 0.0000000000000000e+00  9.9417479163813116e-01 -6.9147783772829596e-02 0.0000000000000000e+00  5.6531223333618585e-01 -3.3887377138859191e-02 0.0000000000000000e+00  6.8315897486840127e-01 -2.1386485172994081e-02 0.0000000000000000e+00  0.0000000000000000e+00 0.0000000000000000e+00 0.0000000000000000e+00  1.4981190043288168e+00 -2.7442701764269890e-02 0.0000000000000000e+00  1.1456677846015428e+00 -3.8062192253452806e-03 0.0000000000000000e+00  1.0293189511834928e+00 -6.7818661450903692e-02 0.0000000000000000e+00  1.2432666359495197e+00 -1.0992518255924230e-01 0.0000000000000000e+00  1.8234523325045451e+00 -8.0300498413497720e-02 0.0000000000000000e+00  0.0000000000000000e+00 0.0000000000000000e+00 0.0000000000000000e+00  1.3921057812934008e+00 8.9500212047380606e-03 0.0000000000000000e+00  1.2740664800792130e+00 2.4643033456043305e-03 0.0000000000000000e+00  6.0708901213392386e-01 1.2677797792592888e-01 0.0000000000000000e+00  1.7815435956295336e-01 7.4985121809798772e-02 0.0000000000000000e+00  2.1124966463976533e+00 -9.6756382696210452e-02 0.0000000000000000e+00  1.7646377084657825e+00 -1.2667026306364400e-02 0.0000000000000000e+00  9.2025427668520274e-02 4.4758195294087914e-02 0.0000000000000000e+00  -1.3390756935612522e-02 -2.6440193058612834e-03 0.0000000000000000e+00  3.5104925461918862e-01 -9.9299744026542333e-02 0.0000000000000000e+00  7.7423427850667237e-01 1.0572283972060520e-01 0.0000000000000000e+00  4.7900895180919739e-01 -6.3940549794430479e-02 0.0000000000000000e+00  4.3077968224009389e-01 2.4655608967366210e-02 0.0000000000000000e+00  9.0429750985724189e-01 -1.2505133256657019e-01 0.0000000000000000e+00  1.6317291876520328e+00 -1.2575853174234403e-01 0.0000000000000000e+00  1.8632767798268806e+00 -1.2980444779941927e-01 0.0000000000000000e+00  0.0000000000000000e+00 0.0000000000000000e+00 0.0000000000000000e+00  9.5980246187723939e-01 -3.9311928037277011e-02 0.0000000000000000e+00  1.1474468359450887e+00 -5.5291565777657696e-02 0.0000000000000000e+00  1.9816381849888773e+00 -4.1971405253458272e-02 0.0000000000000000e+00  4.6835594232182309e-01 -5.4353674415372321e-03 0.0000000000000000e+00  -1.2777999808487279e-02 1.4797006550124683e-02 0.0000000000000000e+00  1.3747703036188825e+00 1.2743117492356570e-01 0.0000000000000000e+00  1.7011194422250433e+00 1.3268428079221067e-01 0.0000000000000000e+00  1.8066693592172514e+00 1.1835304261509649e-01 0.0000000000000000e+00  5.0989942718711478e-01 1.2067592192280178e-01 0.0000000000000000e+00  1.8018370308314380e+00 -6.3884292514463908e-03 0.0000000000000000e+00  </DataArray> 
</PointData> 
</Piece>
</UnstructuredGrid>
</VTKFile>