<?xml version="1.0"?>
<VTKFile type="UnstructuredGrid"  version="0.1"  >
<UnstructuredGrid>
<Piece  NumberOfPoints="103" NumberOfCells="167">
<Points>
<DataArray  type="Float64"  NumberOfComponents="3"  format="ascii">0.2286913662688903 0.3133959500822503 0  0.2457579136251883 0.3036253283210157 0  0.2370120387482942 0.3305347050441392 0  0.1133943915886014 0.3302098901172357 0  0.1085927601152855 0.3576703429582752 0  0.1291050229147523 0.3369598757086243 0  0.1876570762350594 0.2701429686523801 0  0.1759534499456636 0.268744809012302 0  0.1862475166430347 0.2806184243256064 0  0.1704873609912336 0.2583583661241701 0  0.1801707401936674 0.2578452677740249 0  0.3009672322348927 0.299853464475565 0  0.2860802002973516 0.3223921533999551 0  0.2799076752212695 0.2955946972235118 0  0.2004289920815778 0.2885787263743592 0  0.2083656065158181 0.2774025780460683 0  0.2175887234644184 0.2860477873464338 0  0.1987596795720009 0.2706417532988148 0  0.1949745518995776 0.2497468076502398 0  0.202315810036185 0.2499463414463592 0  0.1988936168129591 0.2591743361304991 0  0.1613699074131162 0.2874965309748423 0  0.1497954449456231 0.3068853213507886 0  0.1704962809759384 0.2989815459796012 0  0.1273239957535623 0.41 0  0.1550887940203835 0.3759695678273732 0  0.1305531867707806 0.3723894882772687 0  0.2328041563607919 0.2914013345123573 0  0.2145757352600842 0.3012314566270872 0  0.2199699516855607 0.2730509421907208 0  0.2088779690661671 0.2650057074514391 0  0.2335552553807713 0.3548019770067952 0  0.216380800632318 0.3798697230577418 0  0.2537725505472335 0.3777585525832137 0  0.09377624077128965 0.41 0  0.06140001986584975 0.41 0  0.08484979611354741 0.3801877867628078 0  0.3141745521466497 0.41 0  0.3098481778850767 0.3708824362367037 0  0.2803555148413351 0.3762695151888899 0  0.1712191068054211 0.2792458170307043 0  0.3236197880522565 0.342390365483443 0  0.3436434970543172 0.3743236175823911 0  0.2548303845886413 0.3306565522725438 0  0.1851735785078722 0.2631071774152569 0  0.1620856860352591 0.41 0  0.1654256928847844 0.3451700819208795 0  0.1447999649086052 0.3470007664317952 0  0.2460936211071839 0.2733779098999782 0  0.250265698216607 0.2591459325753045 0  0.2578547799253117 0.2736699879086193 0  0.2747137483983895 0.3519826740290966 0  0.2673795049878581 0.3181867883572329 0  0.2403498351518432 0.2646826079825986 0  0.2595321800985562 0.2853145787115269 0  0.245890675076073 0.2871394349824882 0  0.2199894283484474 0.2630314844485698 0  0.2632645194651774 0.3015808908677137 0  0.2741016576310038 0.41 0  0.128782395741745 0.3539195748014988 0  0.1110093235748128 0.3847859225763507 0  0.1666231880877755 0.3117643555727803 0  0.1841090525772461 0.3084299065503739 0  0.1776920932687694 0.3258630445439892 0  0.1759665552266909 0.3607453311538497 0  0.1917080515020064 0.3413476842478615 0  0.3556974926297398 0.41 0  0.2096071079201568 0.2490683551528932 0  0.2166911463435495 0.2471317900544655 0  0.2155707468285289 0.2556953171569842 0  0.2354281840915826 0.41 0  0.1892742072748776 0.2564561470775296 0  0.3054340412842468 0.3221719107153626 0  0.2069640661720074 0.2559705483641431 0  0.299175979503955 0.3443721019725888 0  0.1985922711404066 0.3216774874340058 0  0.217902467256 0.3335522763450835 0  0.1957380535525476 0.3607047222935699 0  0.1837099792663048 0.3830312172891498 0  0.1877417105384929 0.2484740584176516 0  0.1608308335189591 0.3262714997547831 0  0.2122294664542327 0.3536582770139244 0  0.2000381356635816 0.3047271648646204 0  0.1647287152160364 0.2637534120846467 0  0.2294756118369428 0.2628646849955408 0  0.1742197252833576 0.2428413052501257 0  0.1807733240458683 0.2461555514727623 0  0.1752851331147261 0.2508158313127855 0  0.1441725906822958 0.3262643694130186 0  0.1771221153651656 0.2877467988749257 0  0.1981052433265003 0.41 0  0.2520678298491301 0.3496835930425019 0  0.2337109879526324 0.2717726746338737 0  0.1827267976827431 0.2517822297587077 0  0.1632849702488283 0.2726003915760372 0  0.2370670604668411 0.2561437100875122 0  0.1298722944302657 0.3189004895954476 0  0.2129990509249649 0.3158541689725088 0  0.2254320944728471 0.256276132616746 0  0.1865831931948131 0.2944379361003471 0  0.1921250322631934 0.2639147861870621 0  0.2282286223197668 0.2809381514776019 0  0.2375747325401397 0.2803566777819222 0  </DataArray>
</Points>
<Cells>
<DataArray  type="UInt32"  Name="connectivity"  format="ascii">0 1 2  3 4 5  6 7 8  9 10 7  11 12 13  14 15 16  14 15 17  18 19 20  21 22 23  14 17 8  24 25 26  0 27 28  14 28 16  29 30 15  31 32 33  34 35 36  37 38 39  7 8 40  41 38 42  43 1 2  10 7 44  45 24 25  46 25 47  48 49 50  37 38 42  51 43 52  48 49 53  54 1 55  43 1 52  51 12 52  29 30 56  57 13 52  37 58 39  57 1 52  12 13 52  59 4 5  34 36 60  61 62 63  59 47 26  46 64 65  6 17 8  46 63 65  66 37 42  67 68 69  70 32 33  18 20 71  27 28 16  25 47 26  61 22 23  11 12 72  19 20 73  30 69 56  57 54 1  41 38 74  75 76 65  77 32 78  0 27 1  51 74 39  41 74 72  46 25 64  57 54 13  79 18 71  61 22 80  24 34 60  76 81 65  14 28 82  75 62 63  30 15 17  61 62 23  9 7 83  45 25 78  29 56 84  24 60 26  29 15 16  85 86 87  9 10 87  48 55 50  38 74 39  88 22 80  77 64 65  30 20 17  89 8 40  77 32 81  67 69 73  70 90 32  31 33 91  58 70 33  31 32 81  51 33 91  36 60 4  6 7 44  29 92 84  30 69 73  90 45 78  79 71 93  51 12 74  94 7 83  95 53 84  90 32 78  19 67 73  88 22 96  86 87 93  0 76 97  95 98 84  54 55 50  77 81 65  62 23 99  30 20 73  75 62 82  28 82 97  12 74 72  89 23 99  75 76 97  0 28 97  95 49 53  51 33 39  51 43 91  75 82 97  27 1 55  10 87 93  94 21 40  0 76 2  92 53 84  43 2 91  10 71 93  77 78 64  88 80 47  58 33 39  98 69 56  59 4 26  20 17 100  31 2 91  25 78 64  61 63 80  29 16 101  29 92 101  46 80 47  14 82 99  48 92 53  31 76 2  60 4 26  89 21 40  75 63 65  27 16 101  46 63 80  94 7 40  6 17 100  86 79 93  89 21 23  62 82 99  98 56 84  20 71 100  48 92 102  10 71 44  31 76 81  27 55 102  48 55 102  27 101 102  14 8 99  89 8 99  88 96 5  88 47 5  92 101 102  71 100 44  3 96 5  6 100 44  59 47 5  </DataArray>
<DataArray  type="UInt32"  Name="offsets"  format="ascii">3 6 9 12 15 18 21 24 27 30 33 36 39 42 45 48 51 54 57 60 63 66 69 72 75 78 81 84 87 90 93 96 99 102 105 108 111 114 117 120 123 126 129 132 135 138 141 144 147 150 153 156 159 162 165 168 171 174 177 180 183 186 189 192 195 198 201 204 207 210 213 216 219 222 225 228 231 234 237 240 243 246 249 252 255 258 261 264 267 270 273 276 279 282 285 288 291 294 297 300 303 306 309 312 315 318 321 324 327 330 333 336 339 342 345 348 351 354 357 360 363 366 369 372 375 378 381 384 387 390 393 396 399 402 405 408 411 414 417 420 423 426 429 432 435 438 441 444 447 450 453 456 459 462 465 468 471 474 477 480 483 486 489 492 495 498 501 </DataArray>
<DataArray  type="UInt8"  Name="types"  format="ascii">5 5 5 5 5 5 5 5 5 5 5 5 5 5 5 5 5 5 5 5 5 5 5 5 5 5 5 5 5 5 5 5 5 5 5 5 5 5 5 5 5 5 5 5 5 5 5 5 5 5 5 5 5 5 5 5 5 5 5 5 5 5 5 5 5 5 5 5 5 5 5 5 5 5 5 5 5 5 5 5 5 5 5 5 5 5 5 5 5 5 5 5 5 5 5 5 5 5 5 5 5 5 5 5 5 5 5 5 5 5 5 5 5 5 5 5 5 5 5 5 5 5 5 5 5 5 5 5 5 5 5 5 5 5 5 5 5 5 5 5 5 5 5 5 5 5 5 5 5 5 5 5 5 5 5 5 5 5 5 5 5 5 5 5 5 5 5 </DataArray>
</Cells>
<PointData  Vectors="f_43-0"> 
<DataArray  type="Float64"  Name="f_43-0"  NumberOfComponents="3" format="ascii">1.4719112917412649e+00 1.3669762553848908e-01 0.0000000000000000e+00  1.5483363448991205e+00 7.4144743048351489e-02 0.0000000000000000e+00  1.3435123460654752e+00 9.5651959565103348e-02 0.0000000000000000e+00  9.5995505007227078e-01 2.3371000162161198e-01 0.0000000000000000e+00  7.4710854711225771e-01 1.4888359730234302e-01 0.0000000000000000e+00  9.6741659851161244e-01 2.2800782241067705e-01 0.0000000000000000e+00  1.7255246260529808e+00 5.3703887057080169e-01 0.0000000000000000e+00  1.6136049316171288e+00 6.4869995642591327e-01 0.0000000000000000e+00  1.6294355105313396e+00 4.7015059249783958e-01 0.0000000000000000e+00  1.5460886730031138e+00 8.1233863244331483e-01 0.0000000000000000e+00  1.5655830045256138e+00 6.7152686120795102e-01 0.0000000000000000e+00  1.4599830648927583e+00 -8.8703158311421906e-02 0.0000000000000000e+00  1.3852360350508213e+00 -1.8742058125973793e-02 0.0000000000000000e+00  1.5307642033561757e+00 -5.8269813301564090e-02 0.0000000000000000e+00  1.6299734039103002e+00 3.2671319427142126e-01 0.0000000000000000e+00  1.7253572555095971e+00 2.9366557203600069e-01 0.0000000000000000e+00  1.6925380969129964e+00 2.1543429500671238e-01 0.0000000000000000e+00  1.7393531079777982e+00 3.9933745973007795e-01 0.0000000000000000e+00  0.0000000000000000e+00 0.0000000000000000e+00 0.0000000000000000e+00  0.0000000000000000e+00 0.0000000000000000e+00 0.0000000000000000e+00  1.2106422371620207e+00 2.1698732813923535e-01 0.0000000000000000e+00  1.3869972819619079e+00 4.8933111893603654e-01 0.0000000000000000e+00  1.2297523999324944e+00 3.6601875018332936e-01 0.0000000000000000e+00  1.3880249070638480e+00 4.0296265209617849e-01 0.0000000000000000e+00  0.0000000000000000e+00 0.0000000000000000e+00 0.0000000000000000e+00  7.5729081630106598e-01 9.0279520552932493e-02 0.0000000000000000e+00  6.9818858221286817e-01 1.0705088568938496e-01 0.0000000000000000e+00  1.6452245474220371e+00 1.2501917778369609e-01 0.0000000000000000e+00  1.5573018413037349e+00 2.1709194638415036e-01 0.0000000000000000e+00  1.6488851789897434e+00 1.5717932566708367e-01 0.0000000000000000e+00  1.4576077177886049e+00 1.8337742182950237e-01 0.0000000000000000e+00  1.1567794823752298e+00 7.2446491582608880e-02 0.0000000000000000e+00  9.1897758958398457e-01 3.9923296271053295e-02 0.0000000000000000e+00  1.0097194103032645e+00 1.3705157239793450e-02 0.0000000000000000e+00  0.0000000000000000e+00 0.0000000000000000e+00 0.0000000000000000e+00  0.0000000000000000e+00 0.0000000000000000e+00 0.0000000000000000e+00  4.8947490194322524e-01 6.7249225547937955e-02 0.0000000000000000e+00  0.0000000000000000e+00 0.0000000000000000e+00 0.0000000000000000e+00  1.0994938788534703e+00 -1.8867548246769859e-02 0.0000000000000000e+00  1.0479941689365522e+00 -2.6978508976446174e-03 0.0000000000000000e+00  1.5123569976750277e+00 5.4623285117095832e-01 0.0000000000000000e+00  1.2426846374130665e+00 -3.7984656653763785e-02 0.0000000000000000e+00  1.0677292467766508e+00 -3.0690133478993808e-02 0.0000000000000000e+00  1.3515118801613961e+00 4.8303059206109583e-02 0.0000000000000000e+00  1.6715360336625624e+00 5.9062479535097812e-01 0.0000000000000000e+00  0.0000000000000000e+00 0.0000000000000000e+00 0.0000000000000000e+00  1.0399606316089929e+00 1.9629396326920495e-01 0.0000000000000000e+00  9.5202973923824452e-01 1.9848732920739334e-01 0.0000000000000000e+00  1.4727184835633111e+00 -9.7830046968463528e-03 0.0000000000000000e+00  7.3652958716850969e-01 -6.8284665401354069e-02 0.0000000000000000e+00  1.4264044951640991e+00 -5.8155631355860063e-02 0.0000000000000000e+00  1.2148372971739818e+00 9.3629153064801809e-03 0.0000000000000000e+00  1.4289147997476528e+00 1.4104455034485573e-02 0.0000000000000000e+00  1.0855403053026693e+00 -3.5563003532829901e-02 0.0000000000000000e+00  1.6011911612680210e+00 -1.8465063158832219e-02 0.0000000000000000e+00  1.6408926194252944e+00 4.6964890251863657e-02 0.0000000000000000e+00  1.1299961293187217e+00 4.0716505992876934e-02 0.0000000000000000e+00  1.5463005290048215e+00 5.8701560870799193e-03 0.0000000000000000e+00  0.0000000000000000e+00 0.0000000000000000e+00 0.0000000000000000e+00  8.4335767624801961e-01 1.6983706827030898e-01 0.0000000000000000e+00  5.3130960897983459e-01 5.7742467400586500e-02 0.0000000000000000e+00  1.2881603124017718e+00 3.3488932255022991e-01 0.0000000000000000e+00  1.3943701397046120e+00 3.2200135251545614e-01 0.0000000000000000e+00  1.2347903350482299e+00 2.5964112154987412e-01 0.0000000000000000e+00  9.6136684984759202e-01 1.3693692510519812e-01 0.0000000000000000e+00  1.1630376108814520e+00 1.8030714019191948e-01 0.0000000000000000e+00  0.0000000000000000e+00 0.0000000000000000e+00 0.0000000000000000e+00  0.0000000000000000e+00 0.0000000000000000e+00 0.0000000000000000e+00  0.0000000000000000e+00 0.0000000000000000e+00 0.0000000000000000e+00  5.3271358985054007e-01 -1.9214457617595288e-02 0.0000000000000000e+00  0.0000000000000000e+00 0.0000000000000000e+00 0.0000000000000000e+00  1.2404254284744070e+00 3.6594486805377102e-01 0.0000000000000000e+00  1.3595703776675150e+00 -4.5635721221144343e-02 0.0000000000000000e+00  6.5569294804124434e-01 2.7271688665806263e-02 0.0000000000000000e+00  1.2526169907985871e+00 -1.8514947109870231e-02 0.0000000000000000e+00  1.3434549925076236e+00 2.2622604309328781e-01 0.0000000000000000e+00  1.2940705296784181e+00 1.4273958630810699e-01 0.0000000000000000e+00  1.0237559644984151e+00 1.1551659059797946e-01 0.0000000000000000e+00  8.0486695418196730e-01 5.4963283546856992e-02 0.0000000000000000e+00  0.0000000000000000e+00 0.0000000000000000e+00 0.0000000000000000e+00  1.1618036691865852e+00 2.7891977417930430e-01 0.0000000000000000e+00  1.1231209394246320e+00 1.1070591449221545e-01 0.0000000000000000e+00  1.4907238734575510e+00 2.7584678495765214e-01 0.0000000000000000e+00  1.4783471742514247e+00 7.3744451744267825e-01 0.0000000000000000e+00  1.0272230098809023e+00 -1.1968262436950518e-02 0.0000000000000000e+00  0.0000000000000000e+00 0.0000000000000000e+00 0.0000000000000000e+00  0.0000000000000000e+00 0.0000000000000000e+00 0.0000000000000000e+00  1.2367830758892284e+00 6.6123168899673523e-01 0.0000000000000000e+00  1.0938536525991345e+00 2.7603067147391819e-01 0.0000000000000000e+00  1.5072086300383789e+00 4.6067056791050837e-01 0.0000000000000000e+00  0.0000000000000000e+00 0.0000000000000000e+00 0.0000000000000000e+00  1.2175800386081841e+00 4.5752091997605222e-02 0.0000000000000000e+00  1.4943926824574607e+00 4.1720593960103927e-02 0.0000000000000000e+00  9.5681570755359324e-01 3.7230331559554430e-01 0.0000000000000000e+00  1.4506504763387840e+00 6.2314271541756194e-01 0.0000000000000000e+00  5.2932730905348679e-01 -4.1044240615727937e-02 0.0000000000000000e+00  1.0820485292062905e+00 2.9228339546324250e-01 0.0000000000000000e+00  1.4288439113804279e+00 1.9209222549050842e-01 0.0000000000000000e+00  5.3935113338249729e-01 -3.2734172499182153e-02 0.0000000000000000e+00  1.5176598218539059e+00 3.7553006378477366e-01 0.0000000000000000e+00  1.6543917293667434e+00 4.6282452171054711e-01 0.0000000000000000e+00  1.6858212081691348e+00 1.3123212127791839e-01 0.0000000000000000e+00  1.6514333104441166e+00 6.9321852601717304e-02 0.0000000000000000e+00  </DataArray> 
</PointData> 
</Piece>
</UnstructuredGrid>
</VTKFile>