<?xml version="1.0"?>
<VTKFile type="UnstructuredGrid"  version="0.1"  >
<UnstructuredGrid>
<Piece  NumberOfPoints="104" NumberOfCells="168">
<Points>
<DataArray  type="Float64"  NumberOfComponents="3"  format="ascii">0.1123698019379044 0.2058991360802581 0  0.1106531987626008 0.1894643335925837 0  0.09638298985168356 0.2000713960717276 0  0.0534241021414831 0.2075428856341382 0  0.07538638723190919 0.1915913195394167 0  0.06726459509928774 0.2147740778951952 0  0.05117116986370451 0.1453484941029572 0  0.028576868323113 0.1257840022252348 0  0.02526469030969892 0.1581631046774197 0  0.07781603907681035 0.1514291067465787 0  0.06748599119092742 0.1295390004813558 0  0.04799687037553593 0.1900185470502504 0  0.09145562669711395 0.175668370620234 0  0.09635163646555502 0.1596076048115481 0  0.07646146193815946 0.1687797331838 0  0 0.05857142857161107 0  0 0.02928571428580012 0  0.02797905238142366 0.04239836249189064 0  0.06224717571675014 0.16049953533406 0  0 0.1464285714289574 0  0.09921229729781815 0.216694589313852 0  0.09898678642452967 0.1862327908870533 0  0.05400790163887537 0.1101452894911868 0  0.03212895351398194 0.09444182905744057 0  0.08319468457824891 0.2132940804249223 0  0.05506284017382649 0.2425906156552861 0  0.03234799839792719 0.2322323714096635 0  0.03317213267821684 0.2576605437337542 0  0.1292063859387973 0.160179270973018 0  0.1151037363297016 0.1585854167638264 0  0.1231191457617618 0.1724983802372761 0  0.1355360062927427 0.1738833905690768 0  0.1050372607361503 0.1429640509822009 0  0.1230381620938855 0.1450531231009962 0  0.0935028978038551 0.1155179240798671 0  0.111152240021284 0.1189096594659376 0  0.1054072552277489 0.1021549990488465 0  0.1096093854383046 0.1735927505678576 0  0 0.2050000000005308 0  0 0.175714285714732 0  0.02618711892167316 0.1853857958188918 0  0.01613142829340684 0.1072217040510405 0  0.122936306709419 0.1942457603434553 0  0.06019518928764452 0.1756854700606436 0  0.02666772661991777 0.0679778810487357 0  0 0.1171428571431897 0  0.1014345676140794 0.1290819941168235 0  0.117949309539449 0.1314289940198134 0  0.03021129466766341 0.2085417214687756 0  0.1036135449877143 0.05738959277900078 0  0.09466282906331301 0.08157239522441412 0  0.07832843537012292 0.06126359650172827 0  0.1391384346554765 0.1858795044738252 0  0.145931504770643 0.1790663128181236 0  0.122631157988491 0.09257199523221718 0  0.1134537715612197 0.07678361544475715 0  0.05222303834057849 0.2265528286728498 0  0.1148334976584671 0.02974143409366008 0  0.09081855865494762 0.03967545099949583 0  0.08022298127737337 0.02066125809180845 0  0.02189315577988027 0.02003654345635235 0  0.1547844879126891 0.178656207771761 0  0.1521457199348551 0.1855097315605723 0  0.09153146034330391 0.147014376487579 0  0.1287170257632792 0.184020996598548 0  0.15 0.2 0  0.1505393388476355 0.1926758619366523 0  0.1422409429600901 0.1949058082424083 0  0.08753885022423818 0.1327572923195972 0  0.09377624077125973 0 0  0.1190100010379731 0.1821161889112382 0  0.1505393388476328 0.2073241380633295 0  0.1411840007379324 0.2116418969121702 0  0.142418795187722 0.2037346032343752 0  0 0.2635714285718054 0  0.01618611334675497 0.2427628432417809 0  0.05089208832759198 0.1278218136608264 0  0.07652608185644398 0.1136649778936783 0  0 0.08785714285737878 0  0.1222490905968041 0.0568943244623543 0  0.05279799154606677 0.07413248748556238 0  0.05175480232928564 0.05161223413186988 0  0.1253993623290572 0.2064220893288703 0  0.1461361374362119 0.1877340006482242 0  0.04532626869875341 0.1677660334507069 0  0.1334936092195415 0.1996994045566088 0  0.05608725465409541 0.09204870468608509 0  0.07008568006437076 0.038573163912329 0  0 0 0  0.03015443760436003 0 0  0.01505266539966814 0.2227442931166357 0  0.1340862878862802 0.2075381961934842 0  0.07522121061998752 0.08286780747833024 0  0.06140001986583606 0 0  0.04981329681653419 0.02287349761798159 0  0.1332359054626095 0.1910279922431038 0  0.1185608756269049 0.1083965233746596 0  0.07392371664175142 0.2310989703896346 0  0.1315669208937715 0.2153401624373302 0  0.1208839583881551 0.2181173442085023 0  0.08823391104783466 0.09873317213709612 0  0 0.2342857142861561 0  0.0736413556775514 0.09691323218918799 0  0.1261668873624441 0.1203748521618074 0  </DataArray>
</Points>
<Cells>
<DataArray  type="UInt32"  Name="connectivity"  format="ascii">0 1 2  3 4 5  6 7 8  6 9 10  3 4 11  12 13 14  15 16 17  6 9 18  19 7 8  0 2 20  2 4 21  9 13 14  22 7 23  12 4 21  24 4 5  25 26 27  28 29 30  28 31 30  24 2 4  32 33 29  34 35 36  37 1 21  12 37 13  38 39 40  28 33 29  7 23 41  0 1 42  12 37 21  43 4 11  15 17 44  19 45 7  34 35 46  32 13 29  32 33 47  38 40 48  49 50 51  52 53 31  54 36 55  25 26 56  39 40 8  57 58 59  16 17 60  12 4 14  61 62 53  24 2 20  9 13 63  49 50 55  64 52 31  50 36 55  65 66 67  9 10 68  69 57 59  37 1 70  32 47 46  71 72 73  74 27 75  37 13 29  37 29 30  6 7 76  34 68 77  78 23 44  3 48 56  39 19 8  49 57 79  80 23 44  80 44 81  22 7 76  0 42 82  49 51 58  62 53 83  40 84 11  78 15 44  1 2 21  43 4 14  40 8 84  65 67 73  26 48 56  85 67 73  22 23 86  10 68 77  43 84 11  85 42 82  66 67 83  6 8 84  17 44 81  87 51 58  6 10 76  65 71 73  80 51 81  80 23 86  88 16 60  35 47 46  88 89 60  38 48 90  85 73 91  49 57 58  9 68 63  80 51 92  89 93 94  50 51 92  85 42 95  64 31 30  64 52 95  78 23 41  52 67 95  35 36 96  24 97 5  98 82 99  25 97 56  87 51 81  45 7 41  52 53 83  64 42 70  34 68 46  52 67 83  72 73 91  64 42 95  87 94 59  89 94 60  93 94 59  87 94 81  97 5 56  17 94 81  26 27 75  22 10 77  45 78 41  85 82 91  3 48 11  0 82 99  32 68 63  32 68 46  80 86 92  98 82 91  93 69 59  85 67 95  32 13 63  34 77 100  74 101 75  22 10 76  98 72 91  54 36 96  101 38 90  50 100 92  17 94 60  22 102 77  40 48 11  1 42 70  62 66 83  102 100 92  43 84 18  26 75 90  102 86 92  35 96 103  34 36 100  43 14 18  102 77 100  37 30 70  50 36 100  22 102 86  49 55 79  9 14 18  101 75 90  64 30 70  6 84 18  35 47 103  87 58 59  3 5 56  26 48 90  </DataArray>
<DataArray  type="UInt32"  Name="offsets"  format="ascii">3 6 9 12 15 18 21 24 27 30 33 36 39 42 45 48 51 54 57 60 63 66 69 72 75 78 81 84 87 90 93 96 99 102 105 108 111 114 117 120 123 126 129 132 135 138 141 144 147 150 153 156 159 162 165 168 171 174 177 180 183 186 189 192 195 198 201 204 207 210 213 216 219 222 225 228 231 234 237 240 243 246 249 252 255 258 261 264 267 270 273 276 279 282 285 288 291 294 297 300 303 306 309 312 315 318 321 324 327 330 333 336 339 342 345 348 351 354 357 360 363 366 369 372 375 378 381 384 387 390 393 396 399 402 405 408 411 414 417 420 423 426 429 432 435 438 441 444 447 450 453 456 459 462 465 468 471 474 477 480 483 486 489 492 495 498 501 504 </DataArray>
<DataArray  type="UInt8"  Name="types"  format="ascii">5 5 5 5 5 5 5 5 5 5 5 5 5 5 5 5 5 5 5 5 5 5 5 5 5 5 5 5 5 5 5 5 5 5 5 5 5 5 5 5 5 5 5 5 5 5 5 5 5 5 5 5 5 5 5 5 5 5 5 5 5 5 5 5 5 5 5 5 5 5 5 5 5 5 5 5 5 5 5 5 5 5 5 5 5 5 5 5 5 5 5 5 5 5 5 5 5 5 5 5 5 5 5 5 5 5 5 5 5 5 5 5 5 5 5 5 5 5 5 5 5 5 5 5 5 5 5 5 5 5 5 5 5 5 5 5 5 5 5 5 5 5 5 5 5 5 5 5 5 5 5 5 5 5 5 5 5 5 5 5 5 5 5 5 5 5 5 5 </DataArray>
</Cells>
<PointData  Vectors="f_43-0"> 
<DataArray  type="Float64"  Name="f_43-0"  NumberOfComponents="3" format="ascii">1.2234271904127645e+00 8.6844905390584412e-02 0.0000000000000000e+00  1.2613534124280792e+00 -1.6879147106016382e-01 0.0000000000000000e+00  1.4248920381614592e+00 -1.5885655521561445e-03 0.0000000000000000e+00  1.7122049323344759e+00 2.2788825097396326e-02 0.0000000000000000e+00  1.6093448444708320e+00 -5.3324752413996646e-02 0.0000000000000000e+00  1.6500908852709066e+00 7.0901278794752429e-02 0.0000000000000000e+00  1.6162970516326718e+00 -1.5465238893897248e-01 0.0000000000000000e+00  1.5337596972268239e+00 -9.2591677889741569e-02 0.0000000000000000e+00  1.7004675828892217e+00 -6.0792851563895113e-02 0.0000000000000000e+00  1.5814764816589590e+00 -2.5328035611048977e-01 0.0000000000000000e+00  1.5348717761373372e+00 -2.3764906280966663e-01 0.0000000000000000e+00  1.7257460964849753e+00 -3.3175106533781910e-02 0.0000000000000000e+00  1.5005588163725052e+00 -2.1150524962430547e-01 0.0000000000000000e+00  1.5081218267265759e+00 -3.4127242450071282e-01 0.0000000000000000e+00  1.5906941185831254e+00 -1.8562381379580725e-01 0.0000000000000000e+00  8.8514924961312791e-01 0.0000000000000000e+00 0.0000000000000000e+00  4.7945584354049642e-01 0.0000000000000000e+00 0.0000000000000000e+00  6.8625431277909177e-01 -5.5209803963421393e-02 0.0000000000000000e+00  1.6358617133431537e+00 -1.6403822683424024e-01 0.0000000000000000e+00  1.6596548430222491e+00 0.0000000000000000e+00 0.0000000000000000e+00  1.4322594170695637e+00 1.7278207431646608e-01 0.0000000000000000e+00  1.4113725312824699e+00 -1.5745825974119607e-01 0.0000000000000000e+00  1.4242461930756054e+00 -1.8298299059748097e-01 0.0000000000000000e+00  1.2881230868454496e+00 -1.0264817225495076e-01 0.0000000000000000e+00  1.5538091738531608e+00 8.8214907779557566e-02 0.0000000000000000e+00  1.6817614571158510e+00 1.4433012767768633e-01 0.0000000000000000e+00  1.7518315945074645e+00 6.1307782022156913e-02 0.0000000000000000e+00  1.6741928120609033e+00 9.3727787554661421e-02 0.0000000000000000e+00  1.3557014131876033e+00 -7.2594794331447743e-01 0.0000000000000000e+00  1.4295356208852921e+00 -5.2310923648030938e-01 0.0000000000000000e+00  1.2230760292946210e+00 -5.3233919406787544e-01 0.0000000000000000e+00  1.0370362280404108e+00 -7.5594336114407479e-01 0.0000000000000000e+00  1.5284041938942248e+00 -4.5594974013790712e-01 0.0000000000000000e+00  1.5205244532196598e+00 -6.4198449872132957e-01 0.0000000000000000e+00  1.4901123031257550e+00 -3.6109997530727989e-01 0.0000000000000000e+00  1.5391363860672140e+00 -4.6832572984717080e-01 0.0000000000000000e+00  1.4555927802720470e+00 -3.8054574577673284e-01 0.0000000000000000e+00  1.3638857157084074e+00 -3.4785722736933317e-01 0.0000000000000000e+00  1.8071797179554430e+00 0.0000000000000000e+00 0.0000000000000000e+00  1.7702984992227828e+00 0.0000000000000000e+00 0.0000000000000000e+00  1.7728105068105326e+00 -2.4867539037005566e-02 0.0000000000000000e+00  1.3971856128169278e+00 -5.3833286833198227e-02 0.0000000000000000e+00  1.0157754575054729e+00 -1.3741645994723783e-01 0.0000000000000000e+00  1.6629248210224510e+00 -1.0349477435191133e-01 0.0000000000000000e+00  1.0100205300278420e+00 -7.3675886652654940e-02 0.0000000000000000e+00  1.4752487493538955e+00 0.0000000000000000e+00 0.0000000000000000e+00  1.5344274334926302e+00 -4.2700773561280009e-01 0.0000000000000000e+00  1.5626760030403299e+00 -5.5614952986651400e-01 0.0000000000000000e+00  1.7829236339721435e+00 1.7114212484491662e-02 0.0000000000000000e+00  1.0587328632979600e+00 -2.1371840174358145e-01 0.0000000000000000e+00  1.2714322720585645e+00 -2.7723338247552770e-01 0.0000000000000000e+00  1.0166945461682333e+00 -1.7936953224768551e-01 0.0000000000000000e+00  6.5790884674541561e-01 -5.8629529272569036e-01 0.0000000000000000e+00  6.4854246758917089e-01 -9.5625858026473010e-01 0.0000000000000000e+00  1.4714031694111951e+00 -4.0731588476743008e-01 0.0000000000000000e+00  1.2977856615161927e+00 -3.1244927920895149e-01 0.0000000000000000e+00  1.7076475042025974e+00 8.5529139990292560e-02 0.0000000000000000e+00  7.5989222950152335e-01 -1.0561391888454492e-01 0.0000000000000000e+00  8.0069943539775712e-01 -1.2831983256267895e-01 0.0000000000000000e+00  5.0092318780219491e-01 -4.8975180531233321e-02 0.0000000000000000e+00  3.4883002978634653e-01 -2.1077142829700492e-02 0.0000000000000000e+00  0.0000000000000000e+00 0.0000000000000000e+00 0.0000000000000000e+00  0.0000000000000000e+00 0.0000000000000000e+00 0.0000000000000000e+00  1.5381482623705056e+00 -3.4932476767151088e-01 0.0000000000000000e+00  9.7594398574128627e-01 -4.3333387832235920e-01 0.0000000000000000e+00  0.0000000000000000e+00 0.0000000000000000e+00 0.0000000000000000e+00  0.0000000000000000e+00 0.0000000000000000e+00 0.0000000000000000e+00  3.5310677019689940e-01 -2.6001728868327589e-01 0.0000000000000000e+00  1.5380534704612139e+00 -3.3856093460120756e-01 0.0000000000000000e+00  0.0000000000000000e+00 0.0000000000000000e+00 0.0000000000000000e+00  1.1690508933008488e+00 -3.4888754405229327e-01 0.0000000000000000e+00  0.0000000000000000e+00 0.0000000000000000e+00 0.0000000000000000e+00  5.1952275306425144e-01 5.0427924974230043e-01 0.0000000000000000e+00  3.3092360738689519e-01 1.6885472545323141e-01 0.0000000000000000e+00  1.6596548430184066e+00 0.0000000000000000e+00 0.0000000000000000e+00  1.7404753916270188e+00 3.9235774148783306e-02 0.0000000000000000e+00  1.5354148123135640e+00 -1.7388815496145371e-01 0.0000000000000000e+00  1.4603814814675535e+00 -2.7724354264705187e-01 0.0000000000000000e+00  1.2170802182172673e+00 0.0000000000000000e+00 0.0000000000000000e+00  1.1324170701433229e+00 -2.3591617342981785e-01 0.0000000000000000e+00  1.1048964467604871e+00 -1.4556410363974773e-01 0.0000000000000000e+00  8.4003067882632632e-01 -1.0678075954036034e-01 0.0000000000000000e+00  9.6089344640193397e-01 1.5122062606898115e-01 0.0000000000000000e+00  3.1682782985671210e-01 -6.2377993625408834e-01 0.0000000000000000e+00  1.6945934458767087e+00 -8.9981769048645840e-02 0.0000000000000000e+00  6.9779419027883560e-01 -2.3456273238950522e-02 0.0000000000000000e+00  1.2818366759478497e+00 -1.7764709763543390e-01 0.0000000000000000e+00  7.1963793084454075e-01 -1.0177334856735444e-01 0.0000000000000000e+00  0.0000000000000000e+00 0.0000000000000000e+00 0.0000000000000000e+00  0.0000000000000000e+00 0.0000000000000000e+00 0.0000000000000000e+00  1.7830379360943291e+00 1.8734785807195026e-02 0.0000000000000000e+00  7.1509713354052329e-01 2.5442604274699615e-01 0.0000000000000000e+00  1.2301517590183280e+00 -2.2309882274961160e-01 0.0000000000000000e+00  0.0000000000000000e+00 0.0000000000000000e+00 0.0000000000000000e+00  4.4362040795246638e-01 -4.3790751555974422e-02 0.0000000000000000e+00  7.5921309240151602e-01 -3.1260174591289874e-01 0.0000000000000000e+00  1.5379887686001772e+00 -4.7116166509463558e-01 0.0000000000000000e+00  1.6298675351472702e+00 1.6813853548408098e-01 0.0000000000000000e+00  8.9996118666341873e-01 4.4459088533598212e-01 0.0000000000000000e+00  1.1530519102730368e+00 3.5173826595171537e-01 0.0000000000000000e+00  1.3863175229839504e+00 -3.0189410934875155e-01 0.0000000000000000e+00  1.7702984992205462e+00 0.0000000000000000e+00 0.0000000000000000e+00  1.3453828685724343e+00 -2.4485538771374152e-01 0.0000000000000000e+00  1.6078047518914491e+00 -5.7332361691741895e-01 0.0000000000000000e+00  </DataArray> 
</PointData> 
</Piece>
</UnstructuredGrid>
</VTKFile>