<?xml version="1.0"?>
<VTKFile type="UnstructuredGrid"  version="0.1"  >
<UnstructuredGrid>
<Piece  NumberOfPoints="100" NumberOfCells="168">
<Points>
<DataArray  type="Float64"  NumberOfComponents="3"  format="ascii">0.3535460261755617 0.19 0  0.3528922713220932 0.2000185703532356 0  0.3590076176283495 0.196411355804271 0  0.3473758401723931 0.1961819304478349 0  0.3535460261749672 0.21 0  0.3473758401724931 0.2038180695522752 0  0.3590471196690275 0.2036304442587945 0  0.3796850840047755 0.200000000000134 0  0.3871533862418661 0.2029084173136212 0  0.3871533862424271 0.1959250838464788 0  0.3650630746574081 0.199866017807523 0  0.3722167817676917 0.2029084173136195 0  0.372246743208829 0.1959123236376545 0  0.3274069683451451 0.2000000000000796 0  0.3348752705822316 0.202908417313609 0  0.3347912413592433 0.1959225448935183 0  0.3127789816668748 0.1998657885438805 0  0.3199386661080599 0.202908417313604 0  0.3199680582793816 0.1959123018030061 0  0.3417402379596385 0.1998691686391011 0  0.3684826306491596 0.21 0  0.3759509328862226 0.21 0  0.3311411194636928 0.21 0  0.3386094217007701 0.21 0  0.383419235123329 0.21 0  0.3908875373604028 0.21 0  0.3460777239384295 0.19 0  0.3460777239378666 0.21 0  0.3087362127527544 0.19 0  0.3012679105156187 0.19 0  0.3066757059912147 0.1964092924317024 0  0.361014328412667 0.19 0  0.3796850840055151 0.1943028057712579 0  0.3647484795312433 0.1943028057712484 0  0.3274069683455914 0.1943028057712305 0  0.3124703638713219 0.1943028057712193 0  0.3610143284120516 0.21 0  0.341834128962283 0.1943988119061815 0  0.3650260178642469 0.2054197153269502 0  0.3796850840047754 0.2056971942288865 0  0.3274069683451451 0.2056971942288527 0  0.341845332858566 0.2054104280253135 0  0.3908875373612097 0.19 0  0.3834192351240934 0.19 0  0.3759509328869369 0.19 0  0.3684826306498175 0.19 0  0.3386094217012945 0.19 0  0.3311411194641595 0.19 0  0.3236728172270245 0.19 0  0.3162045149898895 0.19 0  0.3655464778159961 0.1466879707354811 0  0.3738358170836363 0.1565872175614931 0  0.383930166391577 0.149077512173999 0  0.3418349201952718 0.1615259010424026 0  0.3538118084207602 0.155339561103512 0  0.3411001259021957 0.1498303228783227 0  0.3422976980851364 0.1814371791041619 0  0.3871183818181629 0.1813492091082587 0  0.3803545031770169 0.2233799225275491 0  0.3797734699465006 0.2157346552691785 0  0.3868315570898186 0.2161590584307608 0  0.3298647941762166 0.154951077946048 0  0.3304301052933576 0.1665413931712652 0  0.3527566348301668 0.1449455739485435 0  0.3342547353003448 0.176221364131867 0  0.3420590264647178 0.171174416987776 0  0.3125543224194783 0.1825714068210268 0  0.3272791508030818 0.1825813053721834 0  0.3572801772935104 0.2173273935815939 0  0.3722102571583817 0.2173806806735415 0  0.3647484950731696 0.1690362455853913 0  0.3534047339781095 0.1664079800909994 0  0.3646043070190422 0.1595814785132252 0  0.3573906953035386 0.1825704874733474 0  0.3721062650880237 0.1825704912629938 0  0.334769373574778 0.1838585991320073 0  0.3758459195692864 0.1665688727818971 0  0.3498118750569956 0.1834818329761723 0  0.3796850840055151 0.1834818329761566 0  0.350235271979906 0.176105405901683 0  0.3198867512741007 0.1691875758392534 0  0.3199291472277772 0.1784487091275169 0  0.3133418865444516 0.1745347694704089 0  0.3264689647572548 0.1745410252268062 0  0.3871533862426517 0.1622083790690482 0  0.30960746080092 0.166771572284543 0  0.3198495352051576 0.1594009174606977 0  0.3792616967340072 0.1761054533295981 0  0.3052148703289762 0.176135200920133 0  0.3050224637686886 0.1840003691157356 0  0.3647484799225001 0.1783360555704042 0  0.3580172190788822 0.1744509634985612 0  0.3714797435049115 0.1744509558619459 0  0.3716385577875085 0.2254972730720332 0  0.3870163828938027 0.1711802904735331 0  0.3497998287380586 0.2162289176852799 0  0.3199315490584526 0.1848904494130124 0  0.3647474910084925 0.215095947068514 0  0.3647484797606208 0.1848841839272463 0  0.364747590224077 0.2216658739063822 0  </DataArray>
</Points>
<Cells>
<DataArray  type="UInt32"  Name="connectivity"  format="ascii">0 1 2  0 1 3  4 1 5  4 1 6  7 8 9  10 11 12  13 14 15  16 17 18  13 17 18  19 14 15  7 11 12  20 21 11  22 23 14  24 25 8  0 26 3  27 4 5  28 29 30  31 0 2  7 9 32  10 12 33  13 15 34  16 18 35  13 18 34  7 12 32  4 36 6  19 15 37  20 11 38  21 11 39  10 11 38  24 8 39  22 14 40  7 8 39  7 11 39  13 17 40  13 14 40  23 14 41  19 14 41  42 43 9  44 45 12  46 47 15  48 49 18  10 2 6  1 2 6  44 12 32  43 9 32  45 12 33  47 15 34  49 18 35  48 18 34  1 5 3  19 5 3  46 15 37  10 6 38  26 46 37  23 27 41  43 44 32  45 31 33  36 20 38  21 24 39  47 48 34  49 28 35  36 6 38  10 2 33  31 2 33  16 30 35  28 30 35  26 3 37  27 5 41  19 5 41  19 3 37  50 51 52  53 54 55  26 46 56  42 43 57  58 59 60  53 61 62  54 55 63  64 62 65  53 62 65  49 28 66  47 48 67  4 36 68  20 21 69  70 71 72  31 0 73  44 45 74  46 56 75  70 76 72  26 56 77  53 54 71  43 57 78  58 69 59  79 73 77  80 81 82  80 81 83  84 51 76  64 67 75  80 85 86  87 74 78  53 61 55  80 62 86  88 66 89  79 56 65  64 56 65  70 90 91  70 90 92  58 69 93  79 71 65  84 51 52  87 57 94  27 4 95  28 29 89  46 47 75  88 66 82  64 67 83  21 24 59  0 26 77  79 73 91  70 91 71  43 44 78  54 71 72  70 92 76  28 66 89  87 74 92  51 76 72  87 76 94  47 67 75  4 68 95  21 69 59  0 73 77  79 56 77  44 74 78  61 62 86  53 71 65  49 66 96  64 56 75  87 57 78  48 67 96  36 68 97  20 69 97  31 73 98  45 74 98  24 25 60  84 76 94  50 54 72  50 51 72  88 85 82  24 59 60  81 66 82  80 85 82  81 67 83  50 54 63  79 91 71  99 69 93  64 62 83  80 62 83  87 92 76  90 73 91  90 74 92  81 66 96  81 67 96  48 49 96  99 68 97  36 20 97  99 69 97  45 31 98  90 73 98  90 74 98  </DataArray>
<DataArray  type="UInt32"  Name="offsets"  format="ascii">3 6 9 12 15 18 21 24 27 30 33 36 39 42 45 48 51 54 57 60 63 66 69 72 75 78 81 84 87 90 93 96 99 102 105 108 111 114 117 120 123 126 129 132 135 138 141 144 147 150 153 156 159 162 165 168 171 174 177 180 183 186 189 192 195 198 201 204 207 210 213 216 219 222 225 228 231 234 237 240 243 246 249 252 255 258 261 264 267 270 273 276 279 282 285 288 291 294 297 300 303 306 309 312 315 318 321 324 327 330 333 336 339 342 345 348 351 354 357 360 363 366 369 372 375 378 381 384 387 390 393 396 399 402 405 408 411 414 417 420 423 426 429 432 435 438 441 444 447 450 453 456 459 462 465 468 471 474 477 480 483 486 489 492 495 498 501 504 </DataArray>
<DataArray  type="UInt8"  Name="types"  format="ascii">5 5 5 5 5 5 5 5 5 5 5 5 5 5 5 5 5 5 5 5 5 5 5 5 5 5 5 5 5 5 5 5 5 5 5 5 5 5 5 5 5 5 5 5 5 5 5 5 5 5 5 5 5 5 5 5 5 5 5 5 5 5 5 5 5 5 5 5 5 5 5 5 5 5 5 5 5 5 5 5 5 5 5 5 5 5 5 5 5 5 5 5 5 5 5 5 5 5 5 5 5 5 5 5 5 5 5 5 5 5 5 5 5 5 5 5 5 5 5 5 5 5 5 5 5 5 5 5 5 5 5 5 5 5 5 5 5 5 5 5 5 5 5 5 5 5 5 5 5 5 5 5 5 5 5 5 5 5 5 5 5 5 5 5 5 5 5 5 </DataArray>
</Cells>
<PointData  Vectors="f_43-0"> 
<DataArray  type="Float64"  Name="f_43-0"  NumberOfComponents="3" format="ascii">1.0349463290127679e-05 5.8999800748696374e-04 0.0000000000000000e+00  -5.6759383842069067e-05 5.9228771578056854e-04 0.0000000000000000e+00  -3.6142690707580602e-05 6.3198501070444639e-04 0.0000000000000000e+00  -2.7689093594635208e-05 5.5079776750953456e-04 0.0000000000000000e+00  -1.2485708424300141e-04 6.0086628266366768e-04 0.0000000000000000e+00  -8.0633722227217659e-05 5.5515271916650169e-04 0.0000000000000000e+00  -8.2706512080515284e-05 6.3596083188432713e-04 0.0000000000000000e+00  -6.6374169862047102e-05 7.5866283265253981e-04 0.0000000000000000e+00  -8.1703115490611513e-05 7.9684121993592143e-04 0.0000000000000000e+00  -4.9494655231503106e-05 7.9426921687519153e-04 0.0000000000000000e+00  -6.0788865192471914e-05 6.7334494815095823e-04 0.0000000000000000e+00  -8.0677246285518686e-05 7.1807511125213585e-04 0.0000000000000000e+00  -4.0936530025441474e-05 7.1501324624839355e-04 0.0000000000000000e+00  -4.3943402173332833e-05 4.0441803264600697e-04 0.0000000000000000e+00  -6.8891926515457090e-05 4.6258168934781185e-04 0.0000000000000000e+00  -1.8490357998301770e-05 4.5763640874589215e-04 0.0000000000000000e+00  -3.4839855438192223e-05 2.9483323326138372e-04 0.0000000000000000e+00  -6.0628146475211425e-05 3.4999541785548066e-04 0.0000000000000000e+00  -1.0606874961641344e-05 3.4576995420843243e-04 0.0000000000000000e+00  -5.0471765288150042e-05 5.1194556804168658e-04 0.0000000000000000e+00  -1.2287021529223897e-04 6.9724455991783776e-04 0.0000000000000000e+00  -1.2036738610104390e-04 7.4019090811431741e-04 0.0000000000000000e+00  -1.1934331271092707e-04 4.3880383411828619e-04 0.0000000000000000e+00  -1.2240387816598726e-04 4.9424525117223376e-04 0.0000000000000000e+00  -1.1697326066149406e-04 7.7908840559886476e-04 0.0000000000000000e+00  -1.1282784630844731e-04 8.1359425525690606e-04 0.0000000000000000e+00  1.6603501462283028e-05 5.3700011965409614e-04 0.0000000000000000e+00  -1.2423183226950037e-04 5.4853047530380931e-04 0.0000000000000000e+00  3.5332656230445580e-05 2.6050992320561609e-04 0.0000000000000000e+00  3.5774937590400223e-05 2.0882825102514545e-04 0.0000000000000000e+00  -8.2165631499110190e-06 2.4878207830977009e-04 0.0000000000000000e+00  3.6169781787715552e-06 6.4052926368167603e-04 0.0000000000000000e+00  -3.6973838980787370e-05 7.5567506771149963e-04 0.0000000000000000e+00  -2.6538087995561063e-05 6.6805807647939640e-04 0.0000000000000000e+00  -2.6784594081598465e-06 4.0086464482872906e-04 0.0000000000000000e+00  4.0611044752619062e-06 2.8934431589159188e-04 0.0000000000000000e+00  -1.2440911073416188e-04 6.5062202105285565e-04 0.0000000000000000e+00  -1.1739266533386281e-05 5.0915817639693266e-04 0.0000000000000000e+00  -9.4959989318061104e-05 6.7522987605316172e-04 0.0000000000000000e+00  -9.5999323219287015e-05 7.6010788930604373e-04 0.0000000000000000e+00  -8.5346877518255291e-05 4.0805919828103217e-04 0.0000000000000000e+00  -8.9962200398418390e-05 5.1577654649786532e-04 0.0000000000000000e+00  -2.5957562762855287e-05 8.0733748286216094e-04 0.0000000000000000e+00  -1.8449473230287462e-05 7.7180911958610982e-04 0.0000000000000000e+00  -1.0927852583091678e-05 7.3192358722742065e-04 0.0000000000000000e+00  -3.5329760988187994e-06 6.8802221423307284e-04 0.0000000000000000e+00  2.2182891702365472e-05 4.8218518296182878e-04 0.0000000000000000e+00  2.6950286426204997e-05 4.2631594440314377e-04 0.0000000000000000e+00  3.0810991429313000e-05 3.7017998755134587e-04 0.0000000000000000e+00  3.3635266938322723e-05 3.1462037177937735e-04 0.0000000000000000e+00  1.0606195899634527e+00 2.2257613532052845e-01 0.0000000000000000e+00  7.1144109125526367e-01 1.7639815132361283e-01 0.0000000000000000e+00  1.0374641071261614e+00 2.0939050615273011e-01 0.0000000000000000e+00  3.3013950083506627e-01 1.1740111718279381e-01 0.0000000000000000e+00  6.4479787444167125e-01 1.7217988687024605e-01 0.0000000000000000e+00  8.1055741199039633e-01 1.8677771124271020e-01 0.0000000000000000e+00  -9.2806501887932255e-02 1.5025807655027078e-02 0.0000000000000000e+00  1.0448515335252086e-01 2.5292905718285772e-02 0.0000000000000000e+00  1.3343539962981452e-01 -4.9416248710361196e-02 0.0000000000000000e+00  1.6724886344548339e-02 -1.0748091677689888e-02 0.0000000000000000e+00  4.8492487722197677e-02 -1.2483964098304065e-02 0.0000000000000000e+00  5.1552355604778966e-01 1.3536888487422738e-01 0.0000000000000000e+00  1.0151360189521046e-01 6.8741533323824364e-02 0.0000000000000000e+00  1.0842870559011244e+00 2.2348727728434487e-01 0.0000000000000000e+00  -8.2415549509416181e-02 2.8772784130253731e-02 0.0000000000000000e+00  4.4787707604752043e-02 6.0796392916908623e-02 0.0000000000000000e+00  -1.4465269682160456e-01 1.0471935625702184e-03 0.0000000000000000e+00  -1.2836998984139869e-01 6.3411356660911435e-03 0.0000000000000000e+00  -5.7408492096206222e-02 -1.3418928378568208e-02 0.0000000000000000e+00  1.5006876345509000e-03 -1.6462522221335554e-02 0.0000000000000000e+00  2.3692301977518754e-01 9.4752341034119780e-02 0.0000000000000000e+00  2.4064181710059421e-01 1.0233393118275004e-01 0.0000000000000000e+00  5.4463566786526219e-01 1.5549023568409340e-01 0.0000000000000000e+00  -4.3214697092811838e-02 1.5885213528137158e-02 0.0000000000000000e+00  1.6926429582066943e-02 1.8586691518961890e-02 0.0000000000000000e+00  -1.0727910377342284e-01 6.4197831088354486e-03 0.0000000000000000e+00  3.8125549399585318e-01 1.1578090684040587e-01 0.0000000000000000e+00  -7.1196644953306146e-02 1.1013285395410318e-02 0.0000000000000000e+00  3.8732000109784823e-02 1.5589961890474093e-02 0.0000000000000000e+00  -8.1880163260153165e-03 4.2204455191955086e-02 0.0000000000000000e+00  -1.5375474852856556e-02 3.8302337598505577e-02 0.0000000000000000e+00  -1.4354054077508804e-01 1.0076985598483999e-02 0.0000000000000000e+00  -1.2684105865503173e-01 1.2230295683244428e-02 0.0000000000000000e+00  -8.9058475767045744e-02 2.7056145827214776e-02 0.0000000000000000e+00  5.8976604377762198e-01 1.4300297889710725e-01 0.0000000000000000e+00  1.6184606610058672e-03 2.9266828776785363e-02 0.0000000000000000e+00  2.7730048274584751e-01 8.6925965051403820e-02 0.0000000000000000e+00  1.5963583515822904e-01 5.4573655035488659e-02 0.0000000000000000e+00  -1.5384686261092531e-01 1.1424121541423807e-03 0.0000000000000000e+00  -1.3036909391907633e-01 -1.3043034643136018e-03 0.0000000000000000e+00  3.4331989589181204e-02 3.7883493175885477e-02 0.0000000000000000e+00  6.4615044183177997e-02 5.6568961410469860e-02 0.0000000000000000e+00  1.4628778438127663e-01 6.3025230089639228e-02 0.0000000000000000e+00  1.2308398892269166e-01 -5.9867064123257582e-02 0.0000000000000000e+00  3.2501542732969568e-01 8.6461774874211084e-02 0.0000000000000000e+00  -8.1498910125119159e-02 -8.3060908415482949e-03 0.0000000000000000e+00  -1.1519412607225167e-01 1.6709061583425025e-03 0.0000000000000000e+00  -3.6712081996618968e-02 -7.4351021786396897e-03 0.0000000000000000e+00  -2.5666181999250463e-02 9.1995911732805791e-03 0.0000000000000000e+00  1.4937497751126256e-02 -3.5226643708493724e-02 0.0000000000000000e+00  </DataArray> 
</PointData> 
</Piece>
</UnstructuredGrid>
</VTKFile>