<?xml version="1.0"?>
<VTKFile type="UnstructuredGrid"  version="0.1"  >
<UnstructuredGrid>
<Piece  NumberOfPoints="101" NumberOfCells="169">
<Points>
<DataArray  type="Float64"  NumberOfComponents="3"  format="ascii">0.6 0.21 0  0.5925316977628483 0.21 0  0.5955705746706843 0.2069223055301326 0  0.5887803774232762 0.2001272386983733 0  0.5814408164431408 0.2041285596160068 0  0.5893814947531364 0.2056233639521408 0  0.6 0.2 0  0.6 0.1950000000000217 0  0.594380730180568 0.1966558399668133 0  0.5946539510196798 0.2024302972968126 0  0.6 0.2050000000000054 0  0.5775950932886138 0.21 0  0.5850633955257281 0.21 0  0.6300528284996487 0.2292604486710743 0  0.65429728832161 0.2353880751391984 0  0.6456429596876728 0.2209784072651823 0  0.5740383564454857 0.232486177523615 0  0.5800331369475803 0.2220172718503647 0  0.5872716114964233 0.2289047791562547 0  0.589683001657349 0.3059206033515077 0  0.629251049118315 0.3129131677620721 0  0.6129037791821019 0.2898142990521698 0  0.5669464924360815 0.2475839849813879 0  0.5841951273902199 0.2421589553533847 0  0.5678918321244223 0.2848057098346606 0  0.5916500441695769 0.2809526698769227 0  0.5813292444071699 0.2563523755659055 0  0.5593867837568711 0.2625481287604455 0  0.6158241656144056 0.2465955912391796 0  0.6368758304361363 0.2529361994816268 0  0.6156282497854896 0.2673949998438289 0  0.5926483197196849 0.2655989755524508 0  0.6034720826395079 0.3406552446218118 0  0.5561563723763112 0.3041501920577169 0  0.7014764931779993 0.1925000000000107 0  0.685561679424891 0.2295161340218305 0  0.6773925486195326 0.2026632733038183 0  0.6622141672544596 0.2596384679938497 0  0.5683897549737816 0.3290580395153129 0  0.6341981541449615 0.3582841585921612 0  0.6186516859309905 0.2076004596739355 0  0.6330574554272607 0.20858417289079 0  0.6200567937109939 0.1981193972299755 0  0.5688911489504639 0.2221570651130901 0  0.6659720908852078 0.2972353895876497 0  0.6940661166801609 0.2673943882596362 0  0.5989004035231642 0.2514987524731583 0  0.596265848881424 0.2354323641502947 0  0.6295540558938247 0.1924839069479658 0  0.6341710204839701 0.1765827244303529 0  0.6426099985752125 0.1947200777786613 0  0.615208009837415 0.2301771304243292 0  0.5487739828661812 0.2837987172973246 0  0.6210712537558437 0.2177951339896733 0  0.6711932754123612 0.1788117674793375 0  0.6570334029219593 0.3356135508988682 0  0.5631143150331265 0.2366473934541688 0  0.5768392741880191 0.2703425200264898 0  0.6100254542261326 0.2029134597827689 0  0.6109529519469615 0.19670324045761 0  0.5740261188292279 0.2158012409855351 0  0.6035153318756115 0.216380925869335 0  0.6045977536612152 0.2079044120944432 0  0.6993284284288891 0.3008982894693075 0  0.6641604129055072 0.2170430078016702 0  0.7176052736190859 0.2162836958912044 0  0.5962264926010817 0.2155692304460942 0  0.5886496198982827 0.2178532325665078 0  0.5869673343225223 0.41 0  0.5770529515268702 0.3629450529032476 0  0.6084037118460524 0.3780069571238127 0  0.5963374227678123 0.2233833965505087 0  0.6048429996566183 0.2280441552220857 0  0.7236859362722395 0.2517828338101294 0  0.6916151138480078 0.41 0  0.7140255670996881 0.3646166311524474 0  0.6689331958774321 0.3716842215281515 0  0.6209583882721262 0.1847010880111589 0  0.6140419833156984 0.1920012542761988 0  0.6389246510848009 0.278450010052455 0  0.6902890633484133 0.332151151267615 0  0.6065875229028267 0.1922148945199381 0  0.6047562880647869 0.1975000000000114 0  0.6104992711520371 0.2118453231978703 0  0.6513011150928492 0.1835167781725089 0  0.6503345442188976 0.208122535960376 0  0.6603908909116775 0.196660215430242 0  0.6107068242365286 0.2205343762889329 0  0.6065667631161428 0.2400998453881159 0  0.556227780909367 0.2515606281824664 0  0.6383613676644679 0.41 0  0.5588244563271773 0.225349035787779 0  0.5662965898088369 0.2290837557773043 0  0.7294932489647475 0.2840789881590486 0  0.5811564300792245 0.2152441767609544 0  0.6043492189278221 0.2025000000000026 0  0.6537520553764576 0.1680442900620985 0  0.6385847074107548 0.1562173919888177 0  0.6641520523959832 0.1503720468916702 0  0.6112872589661165 0.1855979267337469 0  0.7279457694224267 0.3237962213587685 0  </DataArray>
</Points>
<Cells>
<DataArray  type="UInt32"  Name="connectivity"  format="ascii">0 1 2  3 4 5  6 7 8  6 9 8  6 10 9  9 2 5  1 2 5  11 12 4  12 4 5  10 9 2  12 1 5  3 9 5  3 9 8  0 10 2  13 14 15  16 17 18  19 20 21  16 22 23  19 24 25  26 27 22  13 28 29  30 25 31  19 20 32  19 24 33  16 23 18  34 35 36  37 35 14  13 14 29  19 32 38  20 32 39  40 41 42  16 17 43  37 44 45  30 46 31  47 46 23  48 49 50  13 28 51  24 27 52  13 41 53  34 54 36  55 20 39  16 22 56  40 41 53  48 41 42  26 27 57  58 42 59  26 22 23  17 43 60  30 25 21  0 61 62  63 44 45  19 38 33  30 28 46  35 14 64  34 35 65  0 1 66  12 1 67  68 69 70  71 61 72  24 25 57  47 23 18  69 32 38  37 35 45  73 35 65  71 67 18  26 46 23  55 20 44  74 75 76  73 35 45  47 71 18  48 49 77  78 77 42  17 67 18  20 21 79  30 21 79  55 76 80  13 41 15  19 25 21  75 76 80  7 81 82  40 83 53  84 49 50  47 71 72  1 67 66  85 64 86  40 58 42  20 44 79  85 15 64  87 83 53  47 46 88  22 56 89  24 27 57  90 70 39  91 43 92  63 45 93  0 66 61  69 32 70  6 7 82  90 76 39  12 67 94  90 68 70  55 44 80  30 28 29  40 58 83  73 45 93  17 60 94  48 41 50  87 61 72  74 90 76  78 42 59  71 66 61  71 67 66  37 44 79  85 50 86  63 44 80  6 10 95  85 41 15  16 43 92  58 83 62  36 64 86  48 77 42  35 36 64  11 12 94  37 14 29  14 15 64  84 50 86  26 57 31  27 22 89  54 36 86  0 10 62  84 49 96  85 41 50  83 61 62  91 56 92  25 57 31  97 98 96  24 52 33  17 67 94  11 60 94  26 46 31  6 82 95  97 49 96  28 46 88  58 95 62  28 51 88  55 76 39  54 98 96  54 84 86  16 56 92  30 29 79  32 70 39  58 82 95  87 51 53  78 77 99  72 51 88  78 81 99  10 95 62  63 100 80  54 84 96  87 72 51  47 72 88  63 100 93  37 29 79  58 82 59  75 100 80  87 83 61  78 81 59  81 82 59  13 51 53  </DataArray>
<DataArray  type="UInt32"  Name="offsets"  format="ascii">3 6 9 12 15 18 21 24 27 30 33 36 39 42 45 48 51 54 57 60 63 66 69 72 75 78 81 84 87 90 93 96 99 102 105 108 111 114 117 120 123 126 129 132 135 138 141 144 147 150 153 156 159 162 165 168 171 174 177 180 183 186 189 192 195 198 201 204 207 210 213 216 219 222 225 228 231 234 237 240 243 246 249 252 255 258 261 264 267 270 273 276 279 282 285 288 291 294 297 300 303 306 309 312 315 318 321 324 327 330 333 336 339 342 345 348 351 354 357 360 363 366 369 372 375 378 381 384 387 390 393 396 399 402 405 408 411 414 417 420 423 426 429 432 435 438 441 444 447 450 453 456 459 462 465 468 471 474 477 480 483 486 489 492 495 498 501 504 507 </DataArray>
<DataArray  type="UInt8"  Name="types"  format="ascii">5 5 5 5 5 5 5 5 5 5 5 5 5 5 5 5 5 5 5 5 5 5 5 5 5 5 5 5 5 5 5 5 5 5 5 5 5 5 5 5 5 5 5 5 5 5 5 5 5 5 5 5 5 5 5 5 5 5 5 5 5 5 5 5 5 5 5 5 5 5 5 5 5 5 5 5 5 5 5 5 5 5 5 5 5 5 5 5 5 5 5 5 5 5 5 5 5 5 5 5 5 5 5 5 5 5 5 5 5 5 5 5 5 5 5 5 5 5 5 5 5 5 5 5 5 5 5 5 5 5 5 5 5 5 5 5 5 5 5 5 5 5 5 5 5 5 5 5 5 5 5 5 5 5 5 5 5 5 5 5 5 5 5 5 5 5 5 5 5 </DataArray>
</Cells>
<PointData  Vectors="f_43-0"> 
<DataArray  type="Float64"  Name="f_43-0"  NumberOfComponents="3" format="ascii">6.1757440917867347e-05 -5.8174451334111520e-04 0.0000000000000000e+00  6.2242806600855543e-05 -5.6550790687908304e-04 0.0000000000000000e+00  5.5193731898452500e-05 -5.7154020861263644e-04 0.0000000000000000e+00  4.1150327214274560e-05 -5.5608323887704398e-04 0.0000000000000000e+00  5.0411182042884912e-05 -5.4099456018008520e-04 0.0000000000000000e+00  5.2965216508840748e-05 -5.5814430067391741e-04 0.0000000000000000e+00  3.9637850941795204e-05 -5.8011854508816787e-04 0.0000000000000000e+00  2.9053057911399605e-05 -5.7933129233991203e-04 0.0000000000000000e+00  3.3144291299596220e-05 -5.6763181940187911e-04 0.0000000000000000e+00  4.5472536702083547e-05 -5.6897762299809324e-04 0.0000000000000000e+00  5.0485951678113202e-05 -5.8091603167573203e-04 0.0000000000000000e+00  6.3404548516940098e-05 -5.3377032646597603e-04 0.0000000000000000e+00  6.2845957950445286e-05 -5.4963656888192577e-04 0.0000000000000000e+00  5.1123470030606255e-01 -9.6605312749302702e-02 0.0000000000000000e+00  5.4369542907101209e-01 -8.1486331332507808e-02 0.0000000000000000e+00  4.2497802660277834e-01 -8.0835153581165747e-02 0.0000000000000000e+00  5.4768118379763142e-01 -2.1711093705793143e-02 0.0000000000000000e+00  3.9482436676940780e-01 -1.3796985069822118e-02 0.0000000000000000e+00  5.2038885589444062e-01 -3.2593879038777571e-02 0.0000000000000000e+00  6.6043038513702967e-01 -2.6061608682950755e-02 0.0000000000000000e+00  6.4224952500727883e-01 -2.9732576388392912e-02 0.0000000000000000e+00  6.5527738447348360e-01 -3.9611402717174823e-02 0.0000000000000000e+00  6.3992299254662310e-01 -2.5072086532124092e-02 0.0000000000000000e+00  6.2363676628551556e-01 -3.7600496902503604e-02 0.0000000000000000e+00  6.7150362608254710e-01 -2.5430608908879462e-02 0.0000000000000000e+00  6.6664967249537677e-01 -3.6541859523484307e-02 0.0000000000000000e+00  6.6174478741905340e-01 -3.6484914948923405e-02 0.0000000000000000e+00  6.6764335380959661e-01 -2.3318524172202967e-02 0.0000000000000000e+00  6.2737574391572803e-01 -7.1712366867812391e-02 0.0000000000000000e+00  6.2042289601791734e-01 -7.2668878255118696e-02 0.0000000000000000e+00  6.5400111360182889e-01 -5.4849191661399149e-02 0.0000000000000000e+00  6.6581587669700559e-01 -4.2487688841804559e-02 0.0000000000000000e+00  6.4381872883603530e-01 -1.7501286461213381e-02 0.0000000000000000e+00  6.6898449135472227e-01 -1.8756388801766621e-02 0.0000000000000000e+00  4.7052968335127310e-01 1.5582487196045486e-02 0.0000000000000000e+00  5.2356161883654118e-01 -6.0340960686147478e-02 0.0000000000000000e+00  4.0476015538386728e-01 -9.9852925788943368e-03 0.0000000000000000e+00  6.1130201617065993e-01 -6.2053670062760795e-02 0.0000000000000000e+00  6.5826499558865437e-01 -1.5830962754910378e-02 0.0000000000000000e+00  6.0728943993045714e-01 -1.3236832208957099e-02 0.0000000000000000e+00  1.4962069259082869e-01 -5.9670173605932665e-02 0.0000000000000000e+00  2.4523468664234499e-01 -5.6168834237501367e-02 0.0000000000000000e+00  1.0757459048085705e-01 1.4364463840008421e-02 0.0000000000000000e+00  3.8424132924830723e-01 -8.7340136239181815e-03 0.0000000000000000e+00  6.2580507106923722e-01 -3.8579332382741520e-02 0.0000000000000000e+00  6.0007160980186913e-01 -4.7355715297976782e-02 0.0000000000000000e+00  6.5047387310765969e-01 -5.3123726071468133e-02 0.0000000000000000e+00  5.8879460383762117e-01 -5.3696847807176463e-02 0.0000000000000000e+00  2.1463804085670235e-01 4.7841077687641384e-02 0.0000000000000000e+00  4.3991869900497899e-01 9.2321875319506516e-02 0.0000000000000000e+00  2.7012358266117881e-01 2.7570025060265541e-02 0.0000000000000000e+00  5.3228422972286094e-01 -9.0920385726483935e-02 0.0000000000000000e+00  6.7353823868184670e-01 -1.9456561377775683e-02 0.0000000000000000e+00  3.4304905661348600e-01 -1.0116742270258067e-01 0.0000000000000000e+00  4.6408388682463120e-01 5.8066317425435908e-02 0.0000000000000000e+00  6.2726599177320275e-01 -2.1126142986670083e-02 0.0000000000000000e+00  5.7832177858940115e-01 -1.7702203297113903e-02 0.0000000000000000e+00  6.7098453474213726e-01 -3.1869250188140713e-02 0.0000000000000000e+00  3.3690381276563507e-02 -2.0912147127080418e-02 0.0000000000000000e+00  4.2769055713864246e-02 2.3137616695878431e-02 0.0000000000000000e+00  2.2217320298125076e-01 -3.5359542064718236e-03 0.0000000000000000e+00  3.0178780888746670e-01 -7.7758094172677844e-02 0.0000000000000000e+00  4.7418285739907057e-02 -4.2193732310331689e-02 0.0000000000000000e+00  6.1144506591098113e-01 -3.1580938178566317e-02 0.0000000000000000e+00  4.2744095161588119e-01 -5.8409408418523913e-02 0.0000000000000000e+00  5.1374245261188822e-01 -2.7059624302514448e-02 0.0000000000000000e+00  2.6199708012975731e-01 -2.7376201099662153e-02 0.0000000000000000e+00  3.0657788459087787e-01 -1.3275333886533304e-02 0.0000000000000000e+00  0.0000000000000000e+00 0.0000000000000000e+00 0.0000000000000000e+00  6.1414008769547734e-01 -8.9025200383888742e-03 0.0000000000000000e+00  5.5953974515984328e-01 -9.4008789861673887e-03 0.0000000000000000e+00  4.5182839409750231e-01 -4.5107237484975742e-02 0.0000000000000000e+00  5.2010200423518771e-01 -7.4858518219775141e-02 0.0000000000000000e+00  5.7819380112033003e-01 -4.0003668641162067e-02 0.0000000000000000e+00  0.0000000000000000e+00 0.0000000000000000e+00 0.0000000000000000e+00  5.7083129038315050e-01 -7.2071878653552773e-03 0.0000000000000000e+00  5.7483899692243345e-01 -8.6643141797099581e-03 0.0000000000000000e+00  2.9387046716549697e-01 9.2005918591600844e-02 0.0000000000000000e+00  1.2250177466023383e-01 6.1633540282693439e-02 0.0000000000000000e+00  6.3960332207864534e-01 -5.1369741012841370e-02 0.0000000000000000e+00  6.1444024620213089e-01 -2.0324837820964652e-02 0.0000000000000000e+00  6.3749164422994817e-02 4.8582953501290438e-02 0.0000000000000000e+00  3.3094323700939053e-03 4.6722407984087291e-03 0.0000000000000000e+00  1.8264315553465910e-01 -8.6896021632727014e-02 0.0000000000000000e+00  3.8973333292695478e-01 6.3413633313285991e-02 0.0000000000000000e+00  3.2446905780992835e-01 -4.0450159818537348e-02 0.0000000000000000e+00  3.4505246662534117e-01 1.1764888531536394e-02 0.0000000000000000e+00  3.9469957382130211e-01 -9.7918552276020518e-02 0.0000000000000000e+00  6.1121579032526641e-01 -6.8956187726979465e-02 0.0000000000000000e+00  6.4906947101825052e-01 -2.0273290198043848e-02 0.0000000000000000e+00  0.0000000000000000e+00 0.0000000000000000e+00 0.0000000000000000e+00  4.3735271845480045e-01 -8.4096343683976917e-03 0.0000000000000000e+00  5.0054698244464135e-01 -1.3999008625123070e-02 0.0000000000000000e+00  5.9598785391289333e-01 -2.9920927614723921e-02 0.0000000000000000e+00  2.1161419780246044e-01 -4.5050760063346821e-03 0.0000000000000000e+00  1.9848568229267781e-03 -3.9797293765561452e-03 0.0000000000000000e+00  5.2119951677543008e-01 7.8466891246762524e-02 0.0000000000000000e+00  5.9233965764598950e-01 7.8924688409963070e-02 0.0000000000000000e+00  5.9176658154676975e-01 6.6275252220958772e-02 0.0000000000000000e+00  2.4810457046324635e-01 9.3658669535474443e-02 0.0000000000000000e+00  6.0300463311928065e-01 -1.8667852659536670e-02 0.0000000000000000e+00  </DataArray> 
</PointData> 
</Piece>
</UnstructuredGrid>
</VTKFile>