<?xml version="1.0"?>
<VTKFile type="UnstructuredGrid"  version="0.1"  >
<UnstructuredGrid>
<Piece  NumberOfPoints="100" NumberOfCells="168">
<Points>
<DataArray  type="Float64"  NumberOfComponents="3"  format="ascii">0.3535460261755617 0.19 0  0.3528922713220932 0.2000185703532356 0  0.3590076176283495 0.196411355804271 0  0.3473758401723931 0.1961819304478349 0  0.3535460261749672 0.21 0  0.3473758401724931 0.2038180695522752 0  0.3590471196690275 0.2036304442587945 0  0.3796850840047755 0.200000000000134 0  0.3871533862418661 0.2029084173136212 0  0.3871533862424271 0.1959250838464788 0  0.3650630746574081 0.199866017807523 0  0.3722167817676917 0.2029084173136195 0  0.372246743208829 0.1959123236376545 0  0.3274069683451451 0.2000000000000796 0  0.3348752705822316 0.202908417313609 0  0.3347912413592433 0.1959225448935183 0  0.3127789816668748 0.1998657885438805 0  0.3199386661080599 0.202908417313604 0  0.3199680582793816 0.1959123018030061 0  0.3417402379596385 0.1998691686391011 0  0.3684826306491596 0.21 0  0.3759509328862226 0.21 0  0.3311411194636928 0.21 0  0.3386094217007701 0.21 0  0.383419235123329 0.21 0  0.3908875373604028 0.21 0  0.3460777239384295 0.19 0  0.3460777239378666 0.21 0  0.3087362127527544 0.19 0  0.3012679105156187 0.19 0  0.3066757059912147 0.1964092924317024 0  0.361014328412667 0.19 0  0.3796850840055151 0.1943028057712579 0  0.3647484795312433 0.1943028057712484 0  0.3274069683455914 0.1943028057712305 0  0.3124703638713219 0.1943028057712193 0  0.3610143284120516 0.21 0  0.341834128962283 0.1943988119061815 0  0.3650260178642469 0.2054197153269502 0  0.3796850840047754 0.2056971942288865 0  0.3274069683451451 0.2056971942288527 0  0.341845332858566 0.2054104280253135 0  0.3908875373612097 0.19 0  0.3834192351240934 0.19 0  0.3759509328869369 0.19 0  0.3684826306498175 0.19 0  0.3386094217012945 0.19 0  0.3311411194641595 0.19 0  0.3236728172270245 0.19 0  0.3162045149898895 0.19 0  0.3655464778159961 0.1466879707354811 0  0.3738358170836363 0.1565872175614931 0  0.383930166391577 0.149077512173999 0  0.3418349201952718 0.1615259010424026 0  0.3538118084207602 0.155339561103512 0  0.3411001259021957 0.1498303228783227 0  0.3422976980851364 0.1814371791041619 0  0.3871183818181629 0.1813492091082587 0  0.3803545031770169 0.2233799225275491 0  0.3797734699465006 0.2157346552691785 0  0.3868315570898186 0.2161590584307608 0  0.3298647941762166 0.154951077946048 0  0.3304301052933576 0.1665413931712652 0  0.3527566348301668 0.1449455739485435 0  0.3342547353003448 0.176221364131867 0  0.3420590264647178 0.171174416987776 0  0.3125543224194783 0.1825714068210268 0  0.3272791508030818 0.1825813053721834 0  0.3572801772935104 0.2173273935815939 0  0.3722102571583817 0.2173806806735415 0  0.3647484950731696 0.1690362455853913 0  0.3534047339781095 0.1664079800909994 0  0.3646043070190422 0.1595814785132252 0  0.3573906953035386 0.1825704874733474 0  0.3721062650880237 0.1825704912629938 0  0.334769373574778 0.1838585991320073 0  0.3758459195692864 0.1665688727818971 0  0.3498118750569956 0.1834818329761723 0  0.3796850840055151 0.1834818329761566 0  0.350235271979906 0.176105405901683 0  0.3198867512741007 0.1691875758392534 0  0.3199291472277772 0.1784487091275169 0  0.3133418865444516 0.1745347694704089 0  0.3264689647572548 0.1745410252268062 0  0.3871533862426517 0.1622083790690482 0  0.30960746080092 0.166771572284543 0  0.3198495352051576 0.1594009174606977 0  0.3792616967340072 0.1761054533295981 0  0.3052148703289762 0.176135200920133 0  0.3050224637686886 0.1840003691157356 0  0.3647484799225001 0.1783360555704042 0  0.3580172190788822 0.1744509634985612 0  0.3714797435049115 0.1744509558619459 0  0.3716385577875085 0.2254972730720332 0  0.3870163828938027 0.1711802904735331 0  0.3497998287380586 0.2162289176852799 0  0.3199315490584526 0.1848904494130124 0  0.3647474910084925 0.215095947068514 0  0.3647484797606208 0.1848841839272463 0  0.364747590224077 0.2216658739063822 0  </DataArray>
</Points>
<Cells>
<DataArray  type="UInt32"  Name="connectivity"  format="ascii">0 1 2  0 1 3  4 1 5  4 1 6  7 8 9  10 11 12  13 14 15  16 17 18  13 17 18  19 14 15  7 11 12  20 21 11  22 23 14  24 25 8  0 26 3  27 4 5  28 29 30  31 0 2  7 9 32  10 12 33  13 15 34  16 18 35  13 18 34  7 12 32  4 36 6  19 15 37  20 11 38  21 11 39  10 11 38  24 8 39  22 14 40  7 8 39  7 11 39  13 17 40  13 14 40  23 14 41  19 14 41  42 43 9  44 45 12  46 47 15  48 49 18  10 2 6  1 2 6  44 12 32  43 9 32  45 12 33  47 15 34  49 18 35  48 18 34  1 5 3  19 5 3  46 15 37  10 6 38  26 46 37  23 27 41  43 44 32  45 31 33  36 20 38  21 24 39  47 48 34  49 28 35  36 6 38  10 2 33  31 2 33  16 30 35  28 30 35  26 3 37  27 5 41  19 5 41  19 3 37  50 51 52  53 54 55  26 46 56  42 43 57  58 59 60  53 61 62  54 55 63  64 62 65  53 62 65  49 28 66  47 48 67  4 36 68  20 21 69  70 71 72  31 0 73  44 45 74  46 56 75  70 76 72  26 56 77  53 54 71  43 57 78  58 69 59  79 73 77  80 81 82  80 81 83  84 51 76  64 67 75  80 85 86  87 74 78  53 61 55  80 62 86  88 66 89  79 56 65  64 56 65  70 90 91  70 90 92  58 69 93  79 71 65  84 51 52  87 57 94  27 4 95  28 29 89  46 47 75  88 66 82  64 67 83  21 24 59  0 26 77  79 73 91  70 91 71  43 44 78  54 71 72  70 92 76  28 66 89  87 74 92  51 76 72  87 76 94  47 67 75  4 68 95  21 69 59  0 73 77  79 56 77  44 74 78  61 62 86  53 71 65  49 66 96  64 56 75  87 57 78  48 67 96  36 68 97  20 69 97  31 73 98  45 74 98  24 25 60  84 76 94  50 54 72  50 51 72  88 85 82  24 59 60  81 66 82  80 85 82  81 67 83  50 54 63  79 91 71  99 69 93  64 62 83  80 62 83  87 92 76  90 73 91  90 74 92  81 66 96  81 67 96  48 49 96  99 68 97  36 20 97  99 69 97  45 31 98  90 73 98  90 74 98  </DataArray>
<DataArray  type="UInt32"  Name="offsets"  format="ascii">3 6 9 12 15 18 21 24 27 30 33 36 39 42 45 48 51 54 57 60 63 66 69 72 75 78 81 84 87 90 93 96 99 102 105 108 111 114 117 120 123 126 129 132 135 138 141 144 147 150 153 156 159 162 165 168 171 174 177 180 183 186 189 192 195 198 201 204 207 210 213 216 219 222 225 228 231 234 237 240 243 246 249 252 255 258 261 264 267 270 273 276 279 282 285 288 291 294 297 300 303 306 309 312 315 318 321 324 327 330 333 336 339 342 345 348 351 354 357 360 363 366 369 372 375 378 381 384 387 390 393 396 399 402 405 408 411 414 417 420 423 426 429 432 435 438 441 444 447 450 453 456 459 462 465 468 471 474 477 480 483 486 489 492 495 498 501 504 </DataArray>
<DataArray  type="UInt8"  Name="types"  format="ascii">5 5 5 5 5 5 5 5 5 5 5 5 5 5 5 5 5 5 5 5 5 5 5 5 5 5 5 5 5 5 5 5 5 5 5 5 5 5 5 5 5 5 5 5 5 5 5 5 5 5 5 5 5 5 5 5 5 5 5 5 5 5 5 5 5 5 5 5 5 5 5 5 5 5 5 5 5 5 5 5 5 5 5 5 5 5 5 5 5 5 5 5 5 5 5 5 5 5 5 5 5 5 5 5 5 5 5 5 5 5 5 5 5 5 5 5 5 5 5 5 5 5 5 5 5 5 5 5 5 5 5 5 5 5 5 5 5 5 5 5 5 5 5 5 5 5 5 5 5 5 5 5 5 5 5 5 5 5 5 5 5 5 5 5 5 5 5 5 </DataArray>
</Cells>
<PointData  Vectors="f_43-0"> 
<DataArray  type="Float64"  Name="f_43-0"  NumberOfComponents="3" format="ascii">-3.0016176237674926e-06 -3.9655911800472208e-05 0.0000000000000000e+00  8.5809422265479312e-06 -4.1746368666999445e-05 0.0000000000000000e+00  5.4324310629964717e-06 -4.8009823335673152e-05 0.0000000000000000e+00  3.3042496341875584e-06 -3.4358337544196179e-05 0.0000000000000000e+00  2.0332304525502784e-05 -4.6334740367265115e-05 0.0000000000000000e+00  1.1483608181887584e-05 -3.6824642622065301e-05 0.0000000000000000e+00  1.4406979676435206e-05 -5.0520078995691218e-05 0.0000000000000000e+00  1.4613392183030052e-05 -7.8133560743409882e-05 0.0000000000000000e+00  2.0994842821205990e-05 -9.0973127212574335e-05 0.0000000000000000e+00  9.8523228662092724e-06 -8.8509037363723026e-05 0.0000000000000000e+00  1.1069150170666208e-05 -5.7014191450910992e-05 0.0000000000000000e+00  1.7012356973168391e-05 -6.8088773622573218e-05 0.0000000000000000e+00  7.0881496223717303e-06 -6.5700448268512897e-05 0.0000000000000000e+00  3.7006514656019380e-06 -1.7044379580303226e-05 0.0000000000000000e+00  7.5247532889853783e-06 -2.4098821555394375e-05 0.0000000000000000e+00  1.3771265979105390e-06 -2.1998952779966345e-05 0.0000000000000000e+00  1.5766422301398313e-06 -7.6581077488100440e-06 0.0000000000000000e+00  4.4247176231713194e-06 -1.2606378517525382e-05 0.0000000000000000e+00  -6.6223991351937059e-08 -1.0891809264851921e-05 0.0000000000000000e+00  6.1428718161439426e-06 -2.9611266783991113e-05 0.0000000000000000e+00  2.5793590535656357e-05 -6.5684694363087498e-05 0.0000000000000000e+00  2.8486685453096238e-05 -7.6454466382312391e-05 0.0000000000000000e+00  1.2415651381765958e-05 -2.3402537760027362e-05 0.0000000000000000e+00  1.4971905399547384e-05 -3.0188752236606616e-05 0.0000000000000000e+00  3.1126951427370922e-05 -8.7892617765648835e-05 0.0000000000000000e+00  3.3691603036646219e-05 -9.9944622219690001e-05 0.0000000000000000e+00  -3.4648746301164049e-06 -3.1416192816885416e-05 0.0000000000000000e+00  1.7626144099470915e-05 -3.7844289522141252e-05 0.0000000000000000e+00  -3.5917582571642839e-06 -4.0515665904075520e-06 0.0000000000000000e+00  -3.1841661739258713e-06 -1.3319628871584486e-06 0.0000000000000000e+00  -6.0081735358594688e-07 -4.1344298564881447e-06 0.0000000000000000e+00  -2.4172585089957295e-06 -4.8755242285532935e-05 0.0000000000000000e+00  6.0103917010828817e-06 -7.6233420725278062e-05 0.0000000000000000e+00  3.6417806769029636e-06 -5.4808233087001483e-05 0.0000000000000000e+00  -6.6009574911104059e-07 -1.5640728914950645e-05 0.0000000000000000e+00  -1.4199155831377007e-06 -6.3861936142454412e-06 0.0000000000000000e+00  2.3066146949428567e-05 -5.5628848399511766e-05 0.0000000000000000e+00  7.4030841891717063e-07 -2.8157514394703632e-05 0.0000000000000000e+00  1.8424218017103067e-05 -5.9024782897819547e-05 0.0000000000000000e+00  2.3242013482289729e-05 -8.0290274656503967e-05 0.0000000000000000e+00  7.9896244945446920e-06 -1.8790372478379278e-05 0.0000000000000000e+00  1.1612208885784346e-05 -3.1597015186575964e-05 0.0000000000000000e+00  8.6932901521098594e-07 -9.2795451428525619e-05 0.0000000000000000e+00  -6.3570607817445581e-08 -8.0746031361712573e-05 0.0000000000000000e+00  -9.3257442794522562e-07 -6.9352999205175817e-05 0.0000000000000000e+00  -1.7221294216848129e-06 -5.8672175763682691e-05 0.0000000000000000e+00  -3.7915842976360560e-06 -2.4074335068709232e-05 0.0000000000000000e+00  -3.9703431362958387e-06 -1.7658347899491665e-05 0.0000000000000000e+00  -3.9966759673341672e-06 -1.2185524920865438e-05 0.0000000000000000e+00  -3.8687205076576337e-06 -7.6549234950550618e-06 0.0000000000000000e+00  6.6328184169240501e-01 8.7192789341369981e-02 0.0000000000000000e+00  6.0852877446920117e-01 5.9519061609346745e-02 0.0000000000000000e+00  6.7520534581455893e-01 6.2222536011477293e-02 0.0000000000000000e+00  4.7887535240802687e-01 7.9984603247742869e-02 0.0000000000000000e+00  5.7241463345828913e-01 8.4733915633388834e-02 0.0000000000000000e+00  5.9483810781024116e-01 1.1293944611187899e-01 0.0000000000000000e+00  2.1259854449647553e-01 1.2079850620220002e-02 0.0000000000000000e+00  2.9213969750103053e-01 4.6005884658437300e-03 0.0000000000000000e+00  3.8894873202591052e-01 -1.2781438559756230e-02 0.0000000000000000e+00  2.0144436988475503e-01 -2.8446460482713159e-03 0.0000000000000000e+00  2.2020602017385457e-01 -2.6800289157762579e-03 0.0000000000000000e+00  5.1193763612703636e-01 1.1369439175930707e-01 0.0000000000000000e+00  3.8217740868112038e-01 7.1573154836124767e-02 0.0000000000000000e+00  6.5857204003687131e-01 1.0588045181443041e-01 0.0000000000000000e+00  2.7642487816712719e-01 3.0831815752398292e-02 0.0000000000000000e+00  3.7301810728014256e-01 4.5422917428707098e-02 0.0000000000000000e+00  1.0663260069603075e-01 1.2986493878985150e-02 0.0000000000000000e+00  1.5054108883465331e-01 1.1484649699646235e-02 0.0000000000000000e+00  2.1548931494525414e-01 -7.1301485156360150e-03 0.0000000000000000e+00  2.3976933714029236e-01 -5.2965239623371648e-03 0.0000000000000000e+00  4.7092839348415455e-01 3.6794536498568425e-02 0.0000000000000000e+00  4.6675127909547504e-01 5.3207263203833954e-02 0.0000000000000000e+00  5.6341802313101352e-01 6.2203054866922319e-02 0.0000000000000000e+00  2.1984983948007200e-01 7.0898166462808445e-03 0.0000000000000000e+00  2.4232477061852578e-01 5.1042484990352433e-03 0.0000000000000000e+00  1.4496642495352399e-01 7.4773016436487112e-03 0.0000000000000000e+00  5.2634926178240482e-01 3.5124247239258576e-02 0.0000000000000000e+00  1.8411838460475743e-01 6.5122830788552164e-03 0.0000000000000000e+00  2.2560579078435072e-01 3.2941111768618626e-03 0.0000000000000000e+00  3.3107526686115774e-01 2.4648706181153352e-02 0.0000000000000000e+00  3.0621801753250411e-01 6.6932425262185097e-02 0.0000000000000000e+00  1.9005122921464646e-01 2.6818536587883791e-02 0.0000000000000000e+00  2.1226704802960322e-01 4.4868978951524217e-02 0.0000000000000000e+00  2.6909467993956293e-01 4.0572631888314517e-02 0.0000000000000000e+00  5.9204365443316875e-01 3.5827827359653258e-02 0.0000000000000000e+00  2.8806371935459091e-01 8.2316522707446507e-02 0.0000000000000000e+00  4.2456689280388005e-01 1.0845167483936738e-01 0.0000000000000000e+00  3.9872875164419691e-01 1.3527763621644283e-02 0.0000000000000000e+00  1.5661031350775353e-01 3.8665680416570189e-02 0.0000000000000000e+00  6.6196840150802877e-02 9.0731974088971556e-03 0.0000000000000000e+00  3.2773754638426650e-01 1.3818670973323744e-02 0.0000000000000000e+00  3.7931896901577072e-01 2.5781466717471339e-02 0.0000000000000000e+00  4.1236526375952115e-01 1.9744173340190588e-02 0.0000000000000000e+00  4.0959439017609206e-01 -2.0063653092137923e-02 0.0000000000000000e+00  4.9273163489668953e-01 1.9140719376845337e-02 0.0000000000000000e+00  1.7549445601618738e-01 -6.1636973869123582e-03 0.0000000000000000e+00  9.1601256004205212e-02 6.3242685808626194e-03 0.0000000000000000e+00  1.6731131275289002e-01 -3.1960320575990012e-03 0.0000000000000000e+00  1.6904673885743865e-01 3.0338234751630506e-03 0.0000000000000000e+00  3.2566873884668107e-01 -1.4196403414169724e-02 0.0000000000000000e+00  </DataArray> 
</PointData> 
</Piece>
</UnstructuredGrid>
</VTKFile>