<?xml version="1.0"?>
<VTKFile type="UnstructuredGrid"  version="0.1"  >
<UnstructuredGrid>
<Piece  NumberOfPoints="103" NumberOfCells="169">
<Points>
<DataArray  type="Float64"  NumberOfComponents="3"  format="ascii">0.4207607463097617 0.19 0  0.4201487168029707 0.1999966199048527 0  0.4261685417851465 0.196409292431739 0  0.4145905603061963 0.1961819304479011 0  0.4207607463087888 0.21 0  0.4145905603063645 0.2038180695522843 0  0.4262598344738712 0.2036568242185335 0  0.446899804139621 0.1999999999998389 0  0.4394315019025246 0.1970915826863714 0  0.4394608940728603 0.2040870543693135 0  0.3946216884789568 0.2000000000001512 0  0.4020059614928624 0.203547899597858 0  0.4019979587101454 0.1959834479682427 0  0.4618364086138087 0.1999999999998546 0  0.4543681063767183 0.1970915826863795 0  0.4543681063761134 0.2040749161535186 0  0.4693047108508938 0.1970915826863783 0  0.4693047108503577 0.2040749161535231 0  0.3871533862418661 0.2029084173136212 0  0.3871533862424271 0.1959250838464788 0  0.4089549580935208 0.1998691686391595 0  0.4322718174608562 0.200127451265745 0  0.4730388619694271 0.19 0  0.4655705597323621 0.19 0  0.4581022574952563 0.19 0  0.4506339552581777 0.19 0  0.3983558395975142 0.21 0  0.4058241418345938 0.21 0  0.4431656530210671 0.19 0  0.4356973507839815 0.19 0  0.4132924440726327 0.19 0  0.4132924440716992 0.21 0  0.4282290485468779 0.19 0  0.4468998041387391 0.2056971942287257 0  0.4618364086130068 0.2056971942287359 0  0.4319631996644724 0.205697194228716 0  0.4282290485459029 0.21 0  0.4090477820585017 0.1944069323162114 0  0.4767730130879849 0.1943028057711153 0  0.4618364086138088 0.1943028057711072 0  0.3908875373604028 0.21 0  0.3946216884789569 0.2056971942288966 0  0.446899804139621 0.194302805771098 0  0.4322275012857285 0.1945847121082109 0  0.409279320968396 0.2055930218740123 0  0.4506339552573136 0.21 0  0.4581022574944306 0.21 0  0.4356973507830418 0.21 0  0.4431656530201649 0.21 0  0.4058241418354857 0.19 0  0.4805071642065402 0.19 0  0.401463131821351 0.2240614152536154 0  0.4020899907160548 0.2165302463955136 0  0.3946216884789568 0.2158195727016258 0  0.4319631996644723 0.2259854221051505 0  0.4420138570927455 0.2303582032589531 0  0.4274409436629797 0.2358490737568498 0  0.3909674209965625 0.2226356941037057 0  0.4391642236404037 0.2185040792853546 0  0.4166532952113353 0.2316189381631693 0  0.4140433986437475 0.2417572010675891 0  0.4537654266604936 0.2283937178128906 0  0.4470337295051696 0.2214450572771946 0  0.4543958902951323 0.217783002687627 0  0.4091898654769304 0.2539103800220315 0  0.4020607667170538 0.2413000663289324 0  0.3933451459320382 0.2499378971246431 0  0.4468857282753376 0.2152350613820568 0  0.4319982050913569 0.1813492122870563 0  0.4767380076620556 0.1813492122870721 0  0.398571556794488 0.2667712515333163 0  0.3871533862418662 0.2377916209307866 0  0.3951819405974831 0.2310626528016624 0  0.424428444001246 0.2176032464898874 0  0.4319631996644723 0.2156279113565238 0  0.4095582929531458 0.2174316143878764 0  0.4065987454210035 0.2329337197796252 0  0.4170265951911974 0.1826726487248186 0  0.4102372344314323 0.2256491670083618 0  0.4470091562036288 0.18256890171664 0  0.4617258870090093 0.1826555625495994 0  0.4236090047368721 0.2262216159300549 0  0.4244995648184416 0.1837683957183748 0  0.4394315019025247 0.1834818376483804 0  0.3826544750917113 0.2574975795502557 0  0.4693047108508937 0.1834818376483876 0  0.4169851174148118 0.2217509578443784 0  0.4398548996890094 0.1761054820336394 0  0.4688813130644119 0.1761054820336536 0  0.4244948974283196 0.1755365127551117 0  0.4319720988215174 0.1712601408791398 0  0.4543681063767173 0.1676928600783137 0  0.454355826198406 0.1783191038782875 0  0.4476321386943704 0.1742462878721009 0  0.4611006434060722 0.1742578426498367 0  0.4767269250530047 0.1713973971258736 0  0.4170265951902442 0.2149173540338034 0  0.442117717086971 0.1672874945454806 0  0.4666592720111949 0.1673206601298049 0  0.4543663130808365 0.1848930798107721 0  0.3868315570898186 0.2161590584307608 0  0.3862411203249935 0.2293080201888169 0  0.3830052789765099 0.2465504596596307 0  </DataArray>
</Points>
<Cells>
<DataArray  type="UInt32"  Name="connectivity"  format="ascii">0 1 2  0 1 3  4 1 5  4 1 6  7 8 9  10 11 12  13 14 15  13 16 17  10 18 19  7 14 15  20 11 12  21 8 9  22 23 16  24 25 14  26 27 11  28 29 8  0 30 3  31 4 5  32 0 2  7 9 33  13 15 34  13 17 34  7 15 33  21 9 35  4 36 6  20 12 37  22 16 38  23 16 39  40 18 41  25 14 42  24 14 39  26 11 41  10 11 41  13 14 39  13 16 39  10 18 41  7 14 42  28 8 42  7 8 42  29 8 43  21 8 43  27 11 44  20 11 44  45 46 15  47 48 9  21 2 6  1 2 6  46 15 34  45 15 33  48 9 33  47 9 35  1 5 3  20 5 3  49 12 37  21 6 35  30 49 37  27 31 44  48 45 33  36 47 35  50 22 38  23 24 39  40 26 41  25 28 42  29 32 43  36 6 35  32 2 43  21 2 43  30 3 37  31 5 44  20 5 44  20 3 37  51 52 53  54 55 56  51 57 53  47 48 58  59 56 60  61 62 63  64 65 66  48 58 67  29 32 68  50 22 69  62 58 55  64 70 66  71 65 72  61 62 55  54 73 74  51 75 52  54 58 55  71 65 66  51 72 76  51 57 72  27 31 75  4 36 73  65 72 76  0 30 77  51 75 78  25 28 79  23 24 80  54 73 81  32 68 82  29 68 83  84 70 66  22 69 85  59 86 78  59 86 81  62 58 67  59 56 81  54 58 74  87 79 83  54 56 81  88 80 85  89 77 82  45 46 63  64 65 60  26 27 52  47 58 74  32 0 82  28 29 83  22 23 85  87 68 90  89 68 90  27 75 52  91 92 93  91 92 94  59 60 76  88 69 95  0 77 82  87 79 93  28 79 83  36 73 74  31 75 96  88 80 94  23 80 85  4 73 96  87 97 90  91 94 98  87 68 83  88 98 95  25 79 99  24 80 99  40 26 53  88 69 85  89 68 82  36 47 74  26 52 53  45 63 67  59 78 76  40 100 53  65 60 76  31 4 96  86 75 78  86 73 81  86 75 96  86 73 96  62 63 67  24 25 99  87 93 97  48 45 67  92 79 93  92 80 94  88 94 98  92 79 99  92 80 99  57 72 101  57 100 53  51 78 76  71 72 101  71 66 102  84 66 102  </DataArray>
<DataArray  type="UInt32"  Name="offsets"  format="ascii">3 6 9 12 15 18 21 24 27 30 33 36 39 42 45 48 51 54 57 60 63 66 69 72 75 78 81 84 87 90 93 96 99 102 105 108 111 114 117 120 123 126 129 132 135 138 141 144 147 150 153 156 159 162 165 168 171 174 177 180 183 186 189 192 195 198 201 204 207 210 213 216 219 222 225 228 231 234 237 240 243 246 249 252 255 258 261 264 267 270 273 276 279 282 285 288 291 294 297 300 303 306 309 312 315 318 321 324 327 330 333 336 339 342 345 348 351 354 357 360 363 366 369 372 375 378 381 384 387 390 393 396 399 402 405 408 411 414 417 420 423 426 429 432 435 438 441 444 447 450 453 456 459 462 465 468 471 474 477 480 483 486 489 492 495 498 501 504 507 </DataArray>
<DataArray  type="UInt8"  Name="types"  format="ascii">5 5 5 5 5 5 5 5 5 5 5 5 5 5 5 5 5 5 5 5 5 5 5 5 5 5 5 5 5 5 5 5 5 5 5 5 5 5 5 5 5 5 5 5 5 5 5 5 5 5 5 5 5 5 5 5 5 5 5 5 5 5 5 5 5 5 5 5 5 5 5 5 5 5 5 5 5 5 5 5 5 5 5 5 5 5 5 5 5 5 5 5 5 5 5 5 5 5 5 5 5 5 5 5 5 5 5 5 5 5 5 5 5 5 5 5 5 5 5 5 5 5 5 5 5 5 5 5 5 5 5 5 5 5 5 5 5 5 5 5 5 5 5 5 5 5 5 5 5 5 5 5 5 5 5 5 5 5 5 5 5 5 5 5 5 5 5 5 5 </DataArray>
</Cells>
<PointData  Vectors="f_43-0"> 
<DataArray  type="Float64"  Name="f_43-0"  NumberOfComponents="3" format="ascii">-1.3388456374499033e-05 -2.1253316531519062e-05 0.0000000000000000e+00  3.8604341528059660e-06 -2.2429654966542449e-05 0.0000000000000000e+00  -1.3708971413073726e-06 -3.2366321942908450e-05 0.0000000000000000e+00  -3.5611322867272753e-06 -1.1913868485724486e-05 0.0000000000000000e+00  2.1475421970715125e-05 -2.6773040914122384e-05 0.0000000000000000e+00  8.9521744760986215e-06 -1.4010380604988554e-05 0.0000000000000000e+00  1.1798585092929453e-05 -3.4532097661886622e-05 0.0000000000000000e+00  9.3689953211580181e-06 -7.4287780247800047e-05 0.0000000000000000e+00  2.1154812123060478e-06 -5.8184677980203998e-05 0.0000000000000000e+00  1.6004093889256946e-05 -6.0174540542262179e-05 0.0000000000000000e+00  -1.4690847553978627e-06 1.7018793580460699e-05 0.0000000000000000e+00  5.0784711162282233e-06 5.7895539370619415e-06 0.0000000000000000e+00  -5.6534930188728844e-06 7.8099504233668093e-06 0.0000000000000000e+00  1.2207930637240087e-05 -1.0657729964501513e-04 0.0000000000000000e+00  4.6151260236238992e-06 -8.9450988692394440e-05 0.0000000000000000e+00  1.9539372218776008e-05 -9.1309860223108704e-05 0.0000000000000000e+00  6.9982956365778216e-06 -1.2267683725872229e-04 0.0000000000000000e+00  2.2740224287530686e-05 -1.2444336280854936e-04 0.0000000000000000e+00  3.0079310999223672e-07 2.5407212736556679e-05 0.0000000000000000e+00  -7.5202921538948416e-06 2.7109556076557699e-05 0.0000000000000000e+00  1.2989252333232893e-06 -3.6819554017126854e-06 0.0000000000000000e+00  6.6480166272090596e-06 -4.4855477944885386e-05 0.0000000000000000e+00  -8.5099471104204210e-06 -1.2966820961272433e-04 0.0000000000000000e+00  -9.3147407366755794e-06 -1.1263751609481664e-04 0.0000000000000000e+00  -1.0108103628037448e-05 -9.6005030900122725e-05 0.0000000000000000e+00  -1.0873282981252731e-05 -7.9839124947495160e-05 0.0000000000000000e+00  1.2848142460767531e-05 8.6853206037142131e-06 0.0000000000000000e+00  1.5820534358343389e-05 -2.1778497363583395e-06 0.0000000000000000e+00  -1.1600281355127228e-05 -6.4202721253313265e-05 0.0000000000000000e+00  -1.2271176315650578e-05 -4.9174953431220036e-05 0.0000000000000000e+00  -1.3809335319031711e-05 -8.5305068621270071e-06 0.0000000000000000e+00  1.8704301665614806e-05 -1.4027417014378517e-05 0.0000000000000000e+00  -1.2874408703392927e-05 -3.4828782941113281e-05 0.0000000000000000e+00  2.1170642645700126e-05 -7.5923547247549615e-05 0.0000000000000000e+00  2.4779284761251523e-05 -1.0812628049270332e-04 0.0000000000000000e+00  1.7155129781419827e-05 -4.5928749290199580e-05 0.0000000000000000e+00  2.4132785727237846e-05 -4.0337515259124156e-05 0.0000000000000000e+00  -7.1277489163181138e-06 -2.5189959972220015e-06 0.0000000000000000e+00  1.7382821450297165e-06 -1.3923340405848003e-04 0.0000000000000000e+00  -2.8444491680371416e-07 -1.0519840694273428e-04 0.0000000000000000e+00  9.8064095571206519e-06 1.8484693589720899e-05 0.0000000000000000e+00  5.7964859600865627e-06 1.5308318071061592e-05 0.0000000000000000e+00  -2.3675728263388944e-06 -7.2873748490253574e-05 0.0000000000000000e+00  -3.8535147391253514e-06 -4.3376639986025613e-05 0.0000000000000000e+00  1.0251886031258844e-05 -5.9371127204645991e-06 0.0000000000000000e+00  3.1281664533081619e-05 -8.5150089722234426e-05 0.0000000000000000e+00  3.3377897929694204e-05 -1.0120954772761724e-04 0.0000000000000000e+00  2.6655873778067890e-05 -5.4641832673314415e-05 0.0000000000000000e+00  2.9040216757233178e-05 -6.9604059664556491e-05 0.0000000000000000e+00  -1.4111815549797663e-05 3.2542152981188522e-06 0.0000000000000000e+00  -7.7027952085238108e-06 -1.4704385196713778e-04 0.0000000000000000e+00  4.5256721722957466e-01 -1.8129836311798049e-02 0.0000000000000000e+00  2.5237003923440965e-01 -4.5006802066061228e-03 0.0000000000000000e+00  2.1947712367770716e-01 -4.1680558278193360e-03 0.0000000000000000e+00  5.4769846535722055e-01 -1.2263609763891596e-02 0.0000000000000000e+00  6.4399158282065194e-01 -1.5274046677244591e-02 0.0000000000000000e+00  6.9773460631212203e-01 -3.0580773774092785e-02 0.0000000000000000e+00  3.9686059967521675e-01 -1.8234874701792143e-02 0.0000000000000000e+00  3.5430504723781253e-01 -3.3297137309534009e-03 0.0000000000000000e+00  6.2055360228330569e-01 -2.8117103956184029e-02 0.0000000000000000e+00  7.3272673808176891e-01 -5.1928305648666455e-02 0.0000000000000000e+00  6.2224453983489036e-01 -9.8129595933425708e-03 0.0000000000000000e+00  4.5077380170759679e-01 -4.6843773047096724e-03 0.0000000000000000e+00  3.3810602260772887e-01 -1.9717949596202962e-03 0.0000000000000000e+00  8.2661718342589730e-01 -7.7885929881047797e-02 0.0000000000000000e+00  7.0129556305980401e-01 -6.1294488340926545e-02 0.0000000000000000e+00  7.6747884682494105e-01 -8.9233088441677780e-02 0.0000000000000000e+00  2.3878311220056261e-01 -1.1516101075068866e-03 0.0000000000000000e+00  3.5460312998276666e-01 3.6332394910756610e-03 0.0000000000000000e+00  3.7629281972968465e-01 1.0273030427619054e-03 0.0000000000000000e+00  9.1390384311657191e-01 -1.0024633790472663e-01 0.0000000000000000e+00  6.2274811190113866e-01 -6.5583721108332466e-02 0.0000000000000000e+00  5.5973551936510013e-01 -3.9212464590701698e-02 0.0000000000000000e+00  3.1228302580941980e-01 -3.6945873855207768e-03 0.0000000000000000e+00  2.4719579457201837e-01 -1.8058883605404535e-03 0.0000000000000000e+00  2.9101480391799789e-01 -4.8960193140765796e-03 0.0000000000000000e+00  6.1610230979587821e-01 -3.6945928400587372e-02 0.0000000000000000e+00  2.9741195843131957e-01 3.7996065433867844e-03 0.0000000000000000e+00  5.0415413808533371e-01 -1.8413128194631673e-02 0.0000000000000000e+00  3.2244908016516910e-01 1.7988541343757574e-03 0.0000000000000000e+00  3.2521543724334701e-01 1.1148492625025011e-03 0.0000000000000000e+00  5.4023270182002148e-01 -1.5136511332054564e-02 0.0000000000000000e+00  2.6556975463738236e-01 2.3298469283186958e-03 0.0000000000000000e+00  2.8537926720216511e-01 1.7462988673794138e-03 0.0000000000000000e+00  8.2620117193071474e-01 -1.1364402211036452e-01 0.0000000000000000e+00  2.9620703767211409e-01 6.4816563938433858e-04 0.0000000000000000e+00  4.2663874701036553e-01 -9.7156069862665128e-03 0.0000000000000000e+00  5.1100204830519891e-01 7.3992679152862801e-03 0.0000000000000000e+00  5.3221493975252077e-01 3.3694293547124059e-03 0.0000000000000000e+00  5.0588742704866363e-01 1.1352993017014826e-02 0.0000000000000000e+00  6.0386121718555885e-01 1.5412663861342241e-02 0.0000000000000000e+00  6.9187688266093017e-01 1.2547018882783584e-02 0.0000000000000000e+00  4.6358809076591495e-01 3.6027062801289944e-03 0.0000000000000000e+00  5.6225909042152356e-01 7.6444650036430698e-03 0.0000000000000000e+00  5.7287178696533270e-01 5.4253541295555940e-03 0.0000000000000000e+00  6.4437126810062872e-01 5.0867931622243338e-03 0.0000000000000000e+00  2.1029843618773603e-01 -1.9606444912255942e-03 0.0000000000000000e+00  6.8305422773269997e-01 1.7305279985504626e-02 0.0000000000000000e+00  7.0925936100394626e-01 9.6587349428401137e-03 0.0000000000000000e+00  2.3631417768948770e-01 6.6163900161332655e-04 0.0000000000000000e+00  2.1865504905191363e-01 -5.3468505550707188e-03 0.0000000000000000e+00  5.0648020005963912e-01 -3.9712163724280325e-02 0.0000000000000000e+00  7.1058459485426440e-01 -9.4040523715141253e-02 0.0000000000000000e+00  </DataArray> 
</PointData> 
</Piece>
</UnstructuredGrid>
</VTKFile>