<?xml version="1.0"?>
<VTKFile type="UnstructuredGrid"  version="0.1"  >
<UnstructuredGrid>
<Piece  NumberOfPoints="103" NumberOfCells="167">
<Points>
<DataArray  type="Float64"  NumberOfComponents="3"  format="ascii">0.2286913662688903 0.3133959500822503 0  0.2457579136251883 0.3036253283210157 0  0.2370120387482942 0.3305347050441392 0  0.1133943915886014 0.3302098901172357 0  0.1085927601152855 0.3576703429582752 0  0.1291050229147523 0.3369598757086243 0  0.1876570762350594 0.2701429686523801 0  0.1759534499456636 0.268744809012302 0  0.1862475166430347 0.2806184243256064 0  0.1704873609912336 0.2583583661241701 0  0.1801707401936674 0.2578452677740249 0  0.3009672322348927 0.299853464475565 0  0.2860802002973516 0.3223921533999551 0  0.2799076752212695 0.2955946972235118 0  0.2004289920815778 0.2885787263743592 0  0.2083656065158181 0.2774025780460683 0  0.2175887234644184 0.2860477873464338 0  0.1987596795720009 0.2706417532988148 0  0.1949745518995776 0.2497468076502398 0  0.202315810036185 0.2499463414463592 0  0.1988936168129591 0.2591743361304991 0  0.1613699074131162 0.2874965309748423 0  0.1497954449456231 0.3068853213507886 0  0.1704962809759384 0.2989815459796012 0  0.1273239957535623 0.41 0  0.1550887940203835 0.3759695678273732 0  0.1305531867707806 0.3723894882772687 0  0.2328041563607919 0.2914013345123573 0  0.2145757352600842 0.3012314566270872 0  0.2199699516855607 0.2730509421907208 0  0.2088779690661671 0.2650057074514391 0  0.2335552553807713 0.3548019770067952 0  0.216380800632318 0.3798697230577418 0  0.2537725505472335 0.3777585525832137 0  0.09377624077128965 0.41 0  0.06140001986584975 0.41 0  0.08484979611354741 0.3801877867628078 0  0.3141745521466497 0.41 0  0.3098481778850767 0.3708824362367037 0  0.2803555148413351 0.3762695151888899 0  0.1712191068054211 0.2792458170307043 0  0.3236197880522565 0.342390365483443 0  0.3436434970543172 0.3743236175823911 0  0.2548303845886413 0.3306565522725438 0  0.1851735785078722 0.2631071774152569 0  0.1620856860352591 0.41 0  0.1654256928847844 0.3451700819208795 0  0.1447999649086052 0.3470007664317952 0  0.2460936211071839 0.2733779098999782 0  0.250265698216607 0.2591459325753045 0  0.2578547799253117 0.2736699879086193 0  0.2747137483983895 0.3519826740290966 0  0.2673795049878581 0.3181867883572329 0  0.2403498351518432 0.2646826079825986 0  0.2595321800985562 0.2853145787115269 0  0.245890675076073 0.2871394349824882 0  0.2199894283484474 0.2630314844485698 0  0.2632645194651774 0.3015808908677137 0  0.2741016576310038 0.41 0  0.128782395741745 0.3539195748014988 0  0.1110093235748128 0.3847859225763507 0  0.1666231880877755 0.3117643555727803 0  0.1841090525772461 0.3084299065503739 0  0.1776920932687694 0.3258630445439892 0  0.1759665552266909 0.3607453311538497 0  0.1917080515020064 0.3413476842478615 0  0.3556974926297398 0.41 0  0.2096071079201568 0.2490683551528932 0  0.2166911463435495 0.2471317900544655 0  0.2155707468285289 0.2556953171569842 0  0.2354281840915826 0.41 0  0.1892742072748776 0.2564561470775296 0  0.3054340412842468 0.3221719107153626 0  0.2069640661720074 0.2559705483641431 0  0.299175979503955 0.3443721019725888 0  0.1985922711404066 0.3216774874340058 0  0.217902467256 0.3335522763450835 0  0.1957380535525476 0.3607047222935699 0  0.1837099792663048 0.3830312172891498 0  0.1877417105384929 0.2484740584176516 0  0.1608308335189591 0.3262714997547831 0  0.2122294664542327 0.3536582770139244 0  0.2000381356635816 0.3047271648646204 0  0.1647287152160364 0.2637534120846467 0  0.2294756118369428 0.2628646849955408 0  0.1742197252833576 0.2428413052501257 0  0.1807733240458683 0.2461555514727623 0  0.1752851331147261 0.2508158313127855 0  0.1441725906822958 0.3262643694130186 0  0.1771221153651656 0.2877467988749257 0  0.1981052433265003 0.41 0  0.2520678298491301 0.3496835930425019 0  0.2337109879526324 0.2717726746338737 0  0.1827267976827431 0.2517822297587077 0  0.1632849702488283 0.2726003915760372 0  0.2370670604668411 0.2561437100875122 0  0.1298722944302657 0.3189004895954476 0  0.2129990509249649 0.3158541689725088 0  0.2254320944728471 0.256276132616746 0  0.1865831931948131 0.2944379361003471 0  0.1921250322631934 0.2639147861870621 0  0.2282286223197668 0.2809381514776019 0  0.2375747325401397 0.2803566777819222 0  </DataArray>
</Points>
<Cells>
<DataArray  type="UInt32"  Name="connectivity"  format="ascii">0 1 2  3 4 5  6 7 8  9 10 7  11 12 13  14 15 16  14 15 17  18 19 20  21 22 23  14 17 8  24 25 26  0 27 28  14 28 16  29 30 15  31 32 33  34 35 36  37 38 39  7 8 40  41 38 42  43 1 2  10 7 44  45 24 25  46 25 47  48 49 50  37 38 42  51 43 52  48 49 53  54 1 55  43 1 52  51 12 52  29 30 56  57 13 52  37 58 39  57 1 52  12 13 52  59 4 5  34 36 60  61 62 63  59 47 26  46 64 65  6 17 8  46 63 65  66 37 42  67 68 69  70 32 33  18 20 71  27 28 16  25 47 26  61 22 23  11 12 72  19 20 73  30 69 56  57 54 1  41 38 74  75 76 65  77 32 78  0 27 1  51 74 39  41 74 72  46 25 64  57 54 13  79 18 71  61 22 80  24 34 60  76 81 65  14 28 82  75 62 63  30 15 17  61 62 23  9 7 83  45 25 78  29 56 84  24 60 26  29 15 16  85 86 87  9 10 87  48 55 50  38 74 39  88 22 80  77 64 65  30 20 17  89 8 40  77 32 81  67 69 73  70 90 32  31 33 91  58 70 33  31 32 81  51 33 91  36 60 4  6 7 44  29 92 84  30 69 73  90 45 78  79 71 93  51 12 74  94 7 83  95 53 84  90 32 78  19 67 73  88 22 96  86 87 93  0 76 97  95 98 84  54 55 50  77 81 65  62 23 99  30 20 73  75 62 82  28 82 97  12 74 72  89 23 99  75 76 97  0 28 97  95 49 53  51 33 39  51 43 91  75 82 97  27 1 55  10 87 93  94 21 40  0 76 2  92 53 84  43 2 91  10 71 93  77 78 64  88 80 47  58 33 39  98 69 56  59 4 26  20 17 100  31 2 91  25 78 64  61 63 80  29 16 101  29 92 101  46 80 47  14 82 99  48 92 53  31 76 2  60 4 26  89 21 40  75 63 65  27 16 101  46 63 80  94 7 40  6 17 100  86 79 93  89 21 23  62 82 99  98 56 84  20 71 100  48 92 102  10 71 44  31 76 81  27 55 102  48 55 102  27 101 102  14 8 99  89 8 99  88 96 5  88 47 5  92 101 102  71 100 44  3 96 5  6 100 44  59 47 5  </DataArray>
<DataArray  type="UInt32"  Name="offsets"  format="ascii">3 6 9 12 15 18 21 24 27 30 33 36 39 42 45 48 51 54 57 60 63 66 69 72 75 78 81 84 87 90 93 96 99 102 105 108 111 114 117 120 123 126 129 132 135 138 141 144 147 150 153 156 159 162 165 168 171 174 177 180 183 186 189 192 195 198 201 204 207 210 213 216 219 222 225 228 231 234 237 240 243 246 249 252 255 258 261 264 267 270 273 276 279 282 285 288 291 294 297 300 303 306 309 312 315 318 321 324 327 330 333 336 339 342 345 348 351 354 357 360 363 366 369 372 375 378 381 384 387 390 393 396 399 402 405 408 411 414 417 420 423 426 429 432 435 438 441 444 447 450 453 456 459 462 465 468 471 474 477 480 483 486 489 492 495 498 501 </DataArray>
<DataArray  type="UInt8"  Name="types"  format="ascii">5 5 5 5 5 5 5 5 5 5 5 5 5 5 5 5 5 5 5 5 5 5 5 5 5 5 5 5 5 5 5 5 5 5 5 5 5 5 5 5 5 5 5 5 5 5 5 5 5 5 5 5 5 5 5 5 5 5 5 5 5 5 5 5 5 5 5 5 5 5 5 5 5 5 5 5 5 5 5 5 5 5 5 5 5 5 5 5 5 5 5 5 5 5 5 5 5 5 5 5 5 5 5 5 5 5 5 5 5 5 5 5 5 5 5 5 5 5 5 5 5 5 5 5 5 5 5 5 5 5 5 5 5 5 5 5 5 5 5 5 5 5 5 5 5 5 5 5 5 5 5 5 5 5 5 5 5 5 5 5 5 5 5 5 5 5 5 </DataArray>
</Cells>
<PointData  Vectors="f_43-0"> 
<DataArray  type="Float64"  Name="f_43-0"  NumberOfComponents="3" format="ascii">2.3335121117877269e+00 2.7596222523520830e-01 0.0000000000000000e+00  2.4907182164878487e+00 2.1485593750215604e-01 0.0000000000000000e+00  2.1242911256626198e+00 1.9605306589315052e-01 0.0000000000000000e+00  1.4878257419285570e+00 3.3145269784912867e-01 0.0000000000000000e+00  1.1293428312983818e+00 2.0472306254177858e-01 0.0000000000000000e+00  1.4921047701773940e+00 3.2812361561105319e-01 0.0000000000000000e+00  2.7017915338310372e+00 8.6071728820416571e-01 0.0000000000000000e+00  2.5172565248404450e+00 1.0054869977456269e+00 0.0000000000000000e+00  2.5349774317924902e+00 7.4557117836223974e-01 0.0000000000000000e+00  2.4545862170534765e+00 1.2583269459181738e+00 0.0000000000000000e+00  2.6083598196588591e+00 1.1325677941125369e+00 0.0000000000000000e+00  2.5092041975333785e+00 -3.9072578274880233e-02 0.0000000000000000e+00  2.2867203740951076e+00 3.0629346160853246e-02 0.0000000000000000e+00  2.5733245240644012e+00 4.2395464729704173e-02 0.0000000000000000e+00  2.5410254329098279e+00 5.5277454210382859e-01 0.0000000000000000e+00  2.7132502981049513e+00 5.4287586218665629e-01 0.0000000000000000e+00  2.6593994836426571e+00 4.2496915566343640e-01 0.0000000000000000e+00  2.7655728219567082e+00 6.9362258095419149e-01 0.0000000000000000e+00  0.0000000000000000e+00 0.0000000000000000e+00 0.0000000000000000e+00  0.0000000000000000e+00 0.0000000000000000e+00 0.0000000000000000e+00  2.1096028253395485e+00 4.5017517609549990e-01 0.0000000000000000e+00  2.1680030630839457e+00 7.4963987690108680e-01 0.0000000000000000e+00  1.9179780151251260e+00 5.5383653692926627e-01 0.0000000000000000e+00  2.1675585759257716e+00 6.2618436958365631e-01 0.0000000000000000e+00  0.0000000000000000e+00 0.0000000000000000e+00 0.0000000000000000e+00  1.0842999406588629e+00 1.3484901284025735e-01 0.0000000000000000e+00  1.0155752451756632e+00 1.5253291791882445e-01 0.0000000000000000e+00  2.6165488133167383e+00 3.0459593959486109e-01 0.0000000000000000e+00  2.4491094522314478e+00 4.0153899609926169e-01 0.0000000000000000e+00  2.7088517863690313e+00 3.9146779825151828e-01 0.0000000000000000e+00  2.4685795218031381e+00 4.2407028982815559e-01 0.0000000000000000e+00  1.7704021146491593e+00 1.3637778010164783e-01 0.0000000000000000e+00  1.3186334697496098e+00 7.2834238560311071e-02 0.0000000000000000e+00  1.4755111222307209e+00 3.6584198765481281e-02 0.0000000000000000e+00  0.0000000000000000e+00 0.0000000000000000e+00 0.0000000000000000e+00  0.0000000000000000e+00 0.0000000000000000e+00 0.0000000000000000e+00  7.0880288869037367e-01 8.7895757612257347e-02 0.0000000000000000e+00  0.0000000000000000e+00 0.0000000000000000e+00 0.0000000000000000e+00  1.6532089577080680e+00 -2.8668147852786610e-02 0.0000000000000000e+00  1.5539097748605135e+00 7.2486493964499825e-03 0.0000000000000000e+00  2.3609872425476932e+00 8.4308597039405619e-01 0.0000000000000000e+00  2.0286124115009505e+00 -6.0256386278643020e-02 0.0000000000000000e+00  1.6094551988942221e+00 -6.2465311176031463e-02 0.0000000000000000e+00  2.1615143607668266e+00 1.2757955643426849e-01 0.0000000000000000e+00  2.7022575425968931e+00 9.7959410035872463e-01 0.0000000000000000e+00  0.0000000000000000e+00 0.0000000000000000e+00 0.0000000000000000e+00  1.5889529707993313e+00 2.9684962101017409e-01 0.0000000000000000e+00  1.4531827407612958e+00 2.9115437990229603e-01 0.0000000000000000e+00  2.4662480012822838e+00 1.6850740640540693e-01 0.0000000000000000e+00  9.4181897951987537e-01 2.0131413726118343e-02 0.0000000000000000e+00  2.3839049071314302e+00 9.8279463577639115e-02 0.0000000000000000e+00  1.9012046027018643e+00 4.0151091041186221e-02 0.0000000000000000e+00  2.3310840949898002e+00 9.7811663861906525e-02 0.0000000000000000e+00  1.6963405848372022e+00 9.0939164758220115e-02 0.0000000000000000e+00  2.6687623468204391e+00 1.3729046918802904e-01 0.0000000000000000e+00  2.6624175013983740e+00 2.1830164794638518e-01 0.0000000000000000e+00  1.8603545693623160e+00 1.9105266942293608e-01 0.0000000000000000e+00  2.5325958836646536e+00 1.2059844097501131e-01 0.0000000000000000e+00  0.0000000000000000e+00 0.0000000000000000e+00 0.0000000000000000e+00  1.2755546563065763e+00 2.4265867484180623e-01 0.0000000000000000e+00  7.4566887041512575e-01 8.1161781601869265e-02 0.0000000000000000e+00  2.0106009077266873e+00 5.1562902320958215e-01 0.0000000000000000e+00  2.1753229755330059e+00 5.1468847191743583e-01 0.0000000000000000e+00  1.9179513206397287e+00 4.0701560232135925e-01 0.0000000000000000e+00  1.4387099711881779e+00 2.1228303283231592e-01 0.0000000000000000e+00  1.7906684629210703e+00 2.8918930298348972e-01 0.0000000000000000e+00  0.0000000000000000e+00 0.0000000000000000e+00 0.0000000000000000e+00  0.0000000000000000e+00 0.0000000000000000e+00 0.0000000000000000e+00  0.0000000000000000e+00 0.0000000000000000e+00 0.0000000000000000e+00  7.5378066767869467e-01 2.6952738112405551e-02 0.0000000000000000e+00  0.0000000000000000e+00 0.0000000000000000e+00 0.0000000000000000e+00  2.2071024143705444e+00 6.9581136438636104e-01 0.0000000000000000e+00  2.2828878435461903e+00 -2.9690623280722320e-02 0.0000000000000000e+00  1.0370883014238681e+00 9.0899842151202823e-02 0.0000000000000000e+00  2.0136195246237207e+00 -8.9777410909253150e-03 0.0000000000000000e+00  2.0980390131775115e+00 3.7492820581666336e-01 0.0000000000000000e+00  2.0220232095081370e+00 2.5384065658809846e-01 0.0000000000000000e+00  1.5345923815071358e+00 1.8749373384141096e-01 0.0000000000000000e+00  1.1422667246116116e+00 8.8687836640616857e-02 0.0000000000000000e+00  0.0000000000000000e+00 0.0000000000000000e+00 0.0000000000000000e+00  1.8020420225827087e+00 4.2443173983484833e-01 0.0000000000000000e+00  1.7111430481609808e+00 1.8790371672559100e-01 0.0000000000000000e+00  2.3339286401269339e+00 4.6404398307119149e-01 0.0000000000000000e+00  2.3157050163313402e+00 1.1255604888615887e+00 0.0000000000000000e+00  1.6219194719249390e+00 1.0910294767263903e-01 0.0000000000000000e+00  0.0000000000000000e+00 0.0000000000000000e+00 0.0000000000000000e+00  0.0000000000000000e+00 0.0000000000000000e+00 0.0000000000000000e+00  2.2107940876427676e+00 1.2030141630996114e+00 0.0000000000000000e+00  1.6965685106004611e+00 4.0893757543475945e-01 0.0000000000000000e+00  2.3500189570118839e+00 7.2109634378827880e-01 0.0000000000000000e+00  0.0000000000000000e+00 0.0000000000000000e+00 0.0000000000000000e+00  1.8953445048274973e+00 9.9587280431942427e-02 0.0000000000000000e+00  2.4960667538053647e+00 2.3857988626070403e-01 0.0000000000000000e+00  1.7526339286786869e+00 7.0087683068670170e-01 0.0000000000000000e+00  2.2687211941490331e+00 9.5375230105626929e-01 0.0000000000000000e+00  6.3685994791044775e-01 3.3170633227090164e-02 0.0000000000000000e+00  1.6835472704426644e+00 4.2738454116501545e-01 0.0000000000000000e+00  2.2447341197947739e+00 3.4138175081251415e-01 0.0000000000000000e+00  7.1233850340365423e-01 2.9493906227119993e-02 0.0000000000000000e+00  2.3675191184173507e+00 6.0099794562403186e-01 0.0000000000000000e+00  2.7321460828410191e+00 8.1260620599885924e-01 0.0000000000000000e+00  2.7085373582344521e+00 3.4202180721456310e-01 0.0000000000000000e+00  2.7017702715543734e+00 2.6839246947326495e-01 0.0000000000000000e+00  </DataArray> 
</PointData> 
</Piece>
</UnstructuredGrid>
</VTKFile>