<?xml version="1.0"?>
<VTKFile type="UnstructuredGrid"  version="0.1"  >
<UnstructuredGrid>
<Piece  NumberOfPoints="103" NumberOfCells="170">
<Points>
<DataArray  type="Float64"  NumberOfComponents="3"  format="ascii">0.3012679105156187 0.19 0  0.3006558810093873 0.1999966199048318 0  0.2950977245127906 0.1961819304477774 0  0.301267910515333 0.21 0  0.2950977245128307 0.2038180695522663 0  0.2607803159922026 0.2000727136295815 0  0.2677053789419034 0.1964246479135325 0  0.267698176732111 0.2039977513680092 0  0.2751288526855082 0.20000000000002 0  0.2603913042767976 0.1945999920783741 0  0.2639263993299336 0.19 0  0.25 0.2 0  0.2497468076502589 0.2050254481002335 0  0.2550657455369551 0.2034088125358657 0  0.2825131256993216 0.2035478995978015 0  0.2825051229162361 0.1959834479681729 0  0.2894621222999649 0.1998691686390484 0  0.2713947015670686 0.19 0  0.2788630038040554 0.21 0  0.2863313060411479 0.21 0  0.2937996082784807 0.19 0  0.2937996082782405 0.21 0  0.2601812407614425 0.2056861609747042 0  0.2497468076502614 0.1949745518997913 0  0.2548908499171161 0.1966940311614271 0  0.2751288526855081 0.205697194228819 0  0.2751288526856362 0.1943028057711959 0  0.2895549462647731 0.1944069323160756 0  0.2564580970927985 0.19 0  0.2525889069107169 0.1926036384190297 0  0.2897864851748124 0.2055930218738881 0  0.25645809709277 0.21 0  0.25261805618068 0.2074135021971937 0  0.2639263993298655 0.21 0  0.271394701566961 0.21 0  0.2863313060413428 0.19 0  0.2788630038042048 0.19 0  0.2489897948556636 0.19 0  0.2489897948556636 0.21 0  0.2802365149396702 0.2293267412254819 0  0.2888197773682229 0.2217624015035644 0  0.2799011483571476 0.2201540359780956 0  0.2798983539554935 0.1725715317274126 0  0.2887875715604008 0.1784526411902859 0  0.2798265752054099 0.1801908109055989 0  0.2607466101664424 0.2266930975791233 0  0.271385042995999 0.2220255791858506 0  0.2640363109795177 0.2179944263838653 0  0.2544808243315743 0.2458504951732927 0  0.2658768459325225 0.2418747601129979 0  0.2588244756332078 0.23611127323402 0  0.2516468834717856 0.2324930308055588 0  0.2510679533716966 0.2249523323210773 0  0.2433956710264305 0.2381734167068584 0  0.2460613805257083 0.2485222416480207 0  0.2507569858396673 0.2399489856244889 0  0.2607333124992295 0.173299215235651 0  0.2711961111491841 0.1784474567953763 0  0.2640363109795686 0.1820055736160818 0  0.250265698216607 0.2591459325753045 0  0.2627897304119148 0.25271037528669 0  0.2397046897252064 0.2463916348380001 0  0.2693249379754523 0.232253714048252 0  0.246996525252926 0.2170682926548348 0  0.2561841824185058 0.2195000859865352 0  0.2469965252529372 0.1829317073451959 0  0.2561841824184873 0.1804999140134954 0  0.2510789311637825 0.1750218956597876 0  0.2854688561834498 0.2412236914981949 0  0.2752342263051384 0.2394149830158712 0  0.2897734241776366 0.2309782844302881 0  0.2352133972703547 0.2354967132658811 0  0.2400332147833751 0.2299556624715287 0  0.2898993665208313 0.2148884498665536 0  0.2825971549226016 0.2141870669404288 0  0.2533462554466219 0.2143516991142523 0  0.2533462554466303 0.18564830088576 0  0.2234150974215506 0.2441784247426195 0  0.2296339016331197 0.2402719738031125 0  0.2306200006656481 0.2483744735801409 0  0.2900654571599118 0.1851244352956092 0  0.2825971549227736 0.1858129330595456 0  0.2693200344911409 0.1703624615729042 0  0.2370670604668411 0.2561437100875122 0  0.2439893735792577 0.2237683615780412 0  0.2254320944728471 0.256276132616746 0  0.2751288526855082 0.2504894696471402 0  0.2973772572263381 0.2175617982546508 0  0.2973900081628705 0.1824599091601672 0  0.2460399618407353 0.2294379412176375 0  0.235672688557912 0.2416805760911849 0  0.2220625618530342 0.2502300158941232 0  0.2166911463435495 0.2471317900544655 0  0.2155707468285289 0.2556953171569842 0  0.2754241708482248 0.2153487639899751 0  0.3050224637686886 0.1840003691157356 0  0.3052148703289762 0.176135200920133 0  0.2751288526856362 0.184558060069257 0  0.2968565228222139 0.1734776848403526 0  0.2692521927396536 0.2151979606124073 0  0.2691876260717925 0.1848526873929683 0  0.2601922482113177 0.2140493078607503 0  0.260192248211366 0.1859506921392313 0  </DataArray>
</Points>
<Cells>
<DataArray  type="UInt32"  Name="connectivity"  format="ascii">0 1 2  3 1 4  5 6 7  8 6 7  5 6 9  10 6 9  11 12 13  8 14 15  16 14 15  17 10 6  18 19 14  0 20 2  21 3 4  5 7 22  11 23 24  8 7 25  8 15 26  11 13 24  16 15 27  18 14 25  8 14 25  28 24 29  8 6 26  17 6 26  19 14 30  16 14 30  31 13 32  33 34 7  35 36 15  5 13 24  12 13 32  33 7 22  28 24 9  34 7 25  31 13 22  36 15 26  23 24 29  1 4 2  16 4 2  35 15 27  10 28 9  31 33 22  5 24 9  20 35 27  19 21 30  36 17 26  34 18 25  5 13 22  37 23 29  38 12 32  20 2 27  21 4 30  16 4 30  16 2 27  37 28 29  38 31 32  39 40 41  42 43 44  45 46 47  48 49 50  45 51 52  53 54 55  56 57 58  48 59 60  61 53 54  45 46 62  39 46 41  42 57 44  63 64 52  39 46 62  65 66 67  39 68 69  39 68 70  39 40 70  45 62 50  71 72 53  40 73 74  63 64 75  65 66 76  48 49 60  77 78 79  43 80 81  42 57 82  45 64 52  40 41 74  83 61 54  45 64 47  56 66 67  43 44 81  84 63 52  48 54 55  83 61 79  56 66 58  56 57 82  45 51 50  48 50 55  83 85 79  86 49 60  39 62 69  48 59 54  21 3 87  49 62 50  0 20 88  72 53 89  83 59 54  71 53 90  86 49 69  78 79 90  77 79 91  92 93 91  86 68 69  51 53 89  46 41 94  0 88 95  96 88 95  57 44 97  21 87 73  20 88 80  61 53 90  96 88 98  61 79 90  49 62 69  33 34 99  17 10 100  85 79 91  33 47 99  10 58 100  85 93 91  40 87 73  43 88 98  34 18 94  36 17 97  43 88 80  51 50 55  19 21 73  38 31 75  20 35 80  37 28 76  33 47 101  51 53 55  10 58 102  31 75 101  38 63 75  28 76 102  37 65 76  84 52 89  64 75 101  72 84 89  78 71 90  66 76 102  64 47 101  92 77 91  66 58 102  18 94 74  36 97 81  31 33 101  10 28 102  18 19 74  35 36 81  19 73 74  35 80 81  46 47 99  57 58 100  51 52 89  41 94 74  44 97 81  46 94 99  57 97 100  34 94 99  17 97 100  </DataArray>
<DataArray  type="UInt32"  Name="offsets"  format="ascii">3 6 9 12 15 18 21 24 27 30 33 36 39 42 45 48 51 54 57 60 63 66 69 72 75 78 81 84 87 90 93 96 99 102 105 108 111 114 117 120 123 126 129 132 135 138 141 144 147 150 153 156 159 162 165 168 171 174 177 180 183 186 189 192 195 198 201 204 207 210 213 216 219 222 225 228 231 234 237 240 243 246 249 252 255 258 261 264 267 270 273 276 279 282 285 288 291 294 297 300 303 306 309 312 315 318 321 324 327 330 333 336 339 342 345 348 351 354 357 360 363 366 369 372 375 378 381 384 387 390 393 396 399 402 405 408 411 414 417 420 423 426 429 432 435 438 441 444 447 450 453 456 459 462 465 468 471 474 477 480 483 486 489 492 495 498 501 504 507 510 </DataArray>
<DataArray  type="UInt8"  Name="types"  format="ascii">5 5 5 5 5 5 5 5 5 5 5 5 5 5 5 5 5 5 5 5 5 5 5 5 5 5 5 5 5 5 5 5 5 5 5 5 5 5 5 5 5 5 5 5 5 5 5 5 5 5 5 5 5 5 5 5 5 5 5 5 5 5 5 5 5 5 5 5 5 5 5 5 5 5 5 5 5 5 5 5 5 5 5 5 5 5 5 5 5 5 5 5 5 5 5 5 5 5 5 5 5 5 5 5 5 5 5 5 5 5 5 5 5 5 5 5 5 5 5 5 5 5 5 5 5 5 5 5 5 5 5 5 5 5 5 5 5 5 5 5 5 5 5 5 5 5 5 5 5 5 5 5 5 5 5 5 5 5 5 5 5 5 5 5 5 5 5 5 5 5 </DataArray>
</Cells>
<PointData  Vectors="f_43-0"> 
<DataArray  type="Float64"  Name="f_43-0"  NumberOfComponents="3" format="ascii">3.4813133623581412e-06 -1.3641324185871887e-05 0.0000000000000000e+00  1.0158068649713169e-05 -1.8442510803801804e-05 0.0000000000000000e+00  6.6994467911206579e-06 -1.2686099730090907e-05 0.0000000000000000e+00  1.7252859580840768e-05 -2.4869941174002163e-05 0.0000000000000000e+00  1.1380523005383855e-05 -1.7008718047852775e-05 0.0000000000000000e+00  1.3245104506056275e-06 -9.4352332767643338e-07 0.0000000000000000e+00  2.1699709669186465e-06 -3.6218851281136597e-07 0.0000000000000000e+00  4.1308904260345390e-06 -4.8764358380037034e-06 0.0000000000000000e+00  4.7578477793638974e-06 -4.8059315879848523e-06 0.0000000000000000e+00  6.5114632469228999e-07 2.2193481148482462e-06 0.0000000000000000e+00  4.0173817987564668e-07 3.8453312653122812e-06 0.0000000000000000e+00  0.0000000000000000e+00 0.0000000000000000e+00 0.0000000000000000e+00  0.0000000000000000e+00 0.0000000000000000e+00 0.0000000000000000e+00  3.3789133725949050e-07 -1.8198536135255953e-06 0.0000000000000000e+00  7.9996556045831772e-06 -9.9951359300754096e-06 0.0000000000000000e+00  4.5476855427093502e-06 -5.6644941838131181e-06 0.0000000000000000e+00  7.7835234214531392e-06 -1.1388283763141623e-05 0.0000000000000000e+00  8.7146950271851799e-07 1.8381878750934601e-06 0.0000000000000000e+00  9.7460204325734980e-06 -1.2484996306298971e-05 0.0000000000000000e+00  1.2331365940799892e-05 -1.5928128790475257e-05 0.0000000000000000e+00  2.8340316761966942e-06 -8.7190340234765976e-06 0.0000000000000000e+00  1.4837821979628840e-05 -2.0067446698985953e-05 0.0000000000000000e+00  2.3247325619174754e-06 -4.3111278409447927e-06 0.0000000000000000e+00  0.0000000000000000e+00 0.0000000000000000e+00 0.0000000000000000e+00  -1.5346368370182200e-07 1.3391542206780433e-06 0.0000000000000000e+00  6.8355188910768344e-06 -8.2532662025154537e-06 0.0000000000000000e+00  2.7347221700975630e-06 -1.6499848533502107e-06 0.0000000000000000e+00  4.8414002046212134e-06 -8.4555257154564576e-06 0.0000000000000000e+00  4.9268081822239310e-07 4.4674943118666174e-06 0.0000000000000000e+00  -6.9543628320086582e-08 2.3007170574492673e-06 0.0000000000000000e+00  1.1013687746102462e-05 -1.4959898977560723e-05 0.0000000000000000e+00  2.5286183131153630e-06 -6.0173656764519350e-06 0.0000000000000000e+00  5.2694816660029448e-07 -2.7854248876136925e-06 0.0000000000000000e+00  4.5538371812040253e-06 -7.8140471290197641e-06 0.0000000000000000e+00  7.1021067563919786e-06 -9.7810512969011564e-06 0.0000000000000000e+00  2.1747123146564667e-06 -4.4821242805537679e-06 0.0000000000000000e+00  1.5135647818660127e-06 -9.5889579738396865e-07 0.0000000000000000e+00  0.0000000000000000e+00 0.0000000000000000e+00 0.0000000000000000e+00  0.0000000000000000e+00 0.0000000000000000e+00 0.0000000000000000e+00  1.2243661829397491e-01 -2.6958270643570897e-02 0.0000000000000000e+00  1.0316678778308538e-01 -9.0662298615763002e-03 0.0000000000000000e+00  8.0862958451249939e-02 -1.0108691902400430e-02 0.0000000000000000e+00  1.1481572183273346e-01 2.3605768298738554e-02 0.0000000000000000e+00  1.0209991981966517e-01 8.7964226880797285e-03 0.0000000000000000e+00  7.8915461782175331e-02 9.5593186183659268e-03 0.0000000000000000e+00  6.3799732868503184e-02 -3.6186176538342690e-02 0.0000000000000000e+00  7.3112091458358272e-02 -1.7748304851783438e-02 0.0000000000000000e+00  3.7633917029408784e-02 -1.0828060201893997e-02 0.0000000000000000e+00  1.4742119009873397e-01 -8.4721674399467650e-02 0.0000000000000000e+00  1.4311689276796724e-01 -6.7626265017752346e-02 0.0000000000000000e+00  1.0224794449437859e-01 -6.3708981184087882e-02 0.0000000000000000e+00  6.2462393011086095e-02 -5.2952708516518829e-02 0.0000000000000000e+00  2.5881462239119097e-02 -2.6633900526646589e-02 0.0000000000000000e+00  6.8927454597660906e-02 -5.7928500015280604e-02 0.0000000000000000e+00  1.5409015914254734e-01 -8.8761623322338265e-02 0.0000000000000000e+00  1.0453092412707110e-01 -7.4312178721591585e-02 0.0000000000000000e+00  6.3843924788852147e-02 3.6345460886701118e-02 0.0000000000000000e+00  7.0630102783816318e-02 1.6757040297791882e-02 0.0000000000000000e+00  3.7694090114484123e-02 1.0850396693825455e-02 0.0000000000000000e+00  2.1595476814927839e-01 -9.0303034233718410e-02 0.0000000000000000e+00  1.8574858773482669e-01 -8.0841231272250402e-02 0.0000000000000000e+00  1.2498157351590955e-01 -7.7575818462759585e-02 0.0000000000000000e+00  1.1015215379695439e-01 -4.4522732525402307e-02 0.0000000000000000e+00  0.0000000000000000e+00 0.0000000000000000e+00 0.0000000000000000e+00  2.3132288669506822e-02 -1.4754021013551380e-02 0.0000000000000000e+00  0.0000000000000000e+00 0.0000000000000000e+00 0.0000000000000000e+00  2.3175083752513214e-02 1.4769700425907415e-02 0.0000000000000000e+00  2.6054054033181395e-02 2.6799438567030646e-02 0.0000000000000000e+00  1.6693611710794606e-01 -3.9598185840202686e-02 0.0000000000000000e+00  1.4796195661245259e-01 -5.0813584313023429e-02 0.0000000000000000e+00  1.4395108008188173e-01 -2.1475869144728026e-02 0.0000000000000000e+00  0.0000000000000000e+00 0.0000000000000000e+00 0.0000000000000000e+00  0.0000000000000000e+00 0.0000000000000000e+00 0.0000000000000000e+00  5.4376345534832150e-02 -1.7847940358524427e-03 0.0000000000000000e+00  4.2548570267482315e-02 -1.8310744186797632e-03 0.0000000000000000e+00  5.0116821341809961e-03 -2.9560339613756794e-03 0.0000000000000000e+00  5.0196963854692378e-03 2.9609548775862918e-03 0.0000000000000000e+00  0.0000000000000000e+00 0.0000000000000000e+00 0.0000000000000000e+00  0.0000000000000000e+00 0.0000000000000000e+00 0.0000000000000000e+00  1.1587865796884979e-01 -6.0360767809225682e-02 0.0000000000000000e+00  5.4455124317658789e-02 1.7380267410021571e-03 0.0000000000000000e+00  4.2617844525299618e-02 1.8165251736177480e-03 0.0000000000000000e+00  9.9988871060579992e-02 3.8261828539704584e-02 0.0000000000000000e+00  2.0292134122260652e-01 -8.7105365375134525e-02 0.0000000000000000e+00  0.0000000000000000e+00 0.0000000000000000e+00 0.0000000000000000e+00  1.9704134797075931e-01 -6.5856747445262848e-02 0.0000000000000000e+00  1.8269911178601947e-01 -6.2425686844654805e-02 0.0000000000000000e+00  8.3007751349687062e-02 -2.9199178446258187e-03 0.0000000000000000e+00  8.2970353882239306e-02 2.8685224745336182e-03 0.0000000000000000e+00  2.6453470347857107e-02 -3.0308928041757738e-02 0.0000000000000000e+00  6.3410506213393961e-02 -4.6326231234468114e-02 0.0000000000000000e+00  1.0463161412082964e-01 -4.0148385393971475e-02 0.0000000000000000e+00  0.0000000000000000e+00 0.0000000000000000e+00 0.0000000000000000e+00  1.7535164676139639e-01 -3.8521726678257602e-02 0.0000000000000000e+00  4.4070013283096017e-02 -3.8033085280375751e-03 0.0000000000000000e+00  7.3407863259931774e-02 1.3579226871924628e-03 0.0000000000000000e+00  1.3147286940063138e-01 6.1284683215104829e-03 0.0000000000000000e+00  4.4397717963649573e-02 3.9607551987845590e-03 0.0000000000000000e+00  1.3653063297856893e-01 1.1469390816916593e-02 0.0000000000000000e+00  3.4207623108062829e-02 -4.4906851690632481e-03 0.0000000000000000e+00  3.3881796907291407e-02 4.4267250888069985e-03 0.0000000000000000e+00  1.4481703378818668e-02 -3.3863927930444576e-03 0.0000000000000000e+00  1.4503604674005603e-02 3.3891172680598830e-03 0.0000000000000000e+00  </DataArray> 
</PointData> 
</Piece>
</UnstructuredGrid>
</VTKFile>