<?xml version="1.0"?>
<VTKFile type="UnstructuredGrid"  version="0.1"  >
<UnstructuredGrid>
<Piece  NumberOfPoints="104" NumberOfCells="167">
<Points>
<DataArray  type="Float64"  NumberOfComponents="3"  format="ascii">0.3012679105156187 0.19 0  0.3006558810093873 0.1999966199048318 0  0.3066757059912147 0.1964092924317024 0  0.301267910515333 0.21 0  0.3067669986803285 0.203627750582736 0  0.3162045149895234 0.21 0  0.3236728172265972 0.21 0  0.3199386661080599 0.202908417313604 0  0.3087362127524279 0.21 0  0.3274069683451451 0.2056971942288527 0  0.312746837849954 0.2054193256016435 0  0.3127789816668748 0.1998657885438805 0  0.3311411194636928 0.21 0  0.3605639237643 0.2793006923612668 0  0.3754967205959606 0.2925860795314694 0  0.3727949441736886 0.2687069143756727 0  0.3265012756581966 0.2702065959162994 0  0.3425185051143286 0.277559411241074 0  0.3236350239119228 0.2946877384927431 0  0.3871536388992142 0.2768042805511501 0  0.3656958473839882 0.2539056765427533 0  0.3826544750917113 0.2574975795502557 0  0.3742999258550256 0.2455889756585279 0  0.3009672322348927 0.299853464475565 0  0.3119706532029335 0.280741853274607 0  0.29813678539982 0.236276478175315 0  0.3103932646053297 0.2435733951751842 0  0.2950877208402625 0.2480324151406079 0  0.3830052789765099 0.2465504596596307 0  0.3418128473615318 0.2384788409515084 0  0.353800124058392 0.2447246903927239 0  0.3411309613953146 0.2501451311933366 0  0.2941337443604631 0.2779157781414069 0  0.2609061472235815 0.2623077995666049 0  0.250265698216607 0.2591459325753045 0  0.2578547799253117 0.2736699879086193 0  0.3249956812055901 0.3123726632318911 0  0.3425309117203542 0.2940518961451331 0  0.3511864556906398 0.3079593845701901 0  0.3803545031770169 0.2233799225275491 0  0.3909674209965625 0.2226356941037057 0  0.3868315570898186 0.2161590584307608 0  0.2959355069777989 0.2600507343559471 0  0.3100661524210835 0.2650982647042849 0  0.2813918607378073 0.2642650598195126 0  0.2764818109814328 0.2785134123591192 0  0.2595321800985562 0.2853145787115269 0  0.2799076752212695 0.2955946972235118 0  0.3386094217007701 0.21 0  0.3460777239378666 0.21 0  0.3422532254316368 0.2186305831010365 0  0.3096074608005889 0.2332284277153185 0  0.3641563190507836 0.3179653487982807 0  0.3419145640611154 0.3257454339814842 0  0.34764135913642 0.3491933721956422 0  0.3236197880522565 0.342390365483443 0  0.3054340412842468 0.3221719107153626 0  0.3342575907952841 0.223845352414335 0  0.330395134354505 0.2334931151381134 0  0.3420126050355882 0.2289014753216907 0  0.3527566348295874 0.2550544260512217 0  0.3422261770849799 0.2620435439696853 0  0.3570962000964671 0.2658531600023138 0  0.3298536818655586 0.2450564271365737 0  0.3717783033973493 0.3492929215517201 0  0.3024586873317863 0.2302383467013988 0  0.319313320275104 0.2539540926591672 0  0.2854688561834498 0.2412236914981949 0  0.2897734241776366 0.2309782844302881 0  0.3056884213926414 0.2536577882881167 0  0.2627897304119148 0.25271037528669 0  0.3647216780759439 0.2309636620771321 0  0.3532661195270175 0.2336617303183129 0  0.3647485037428231 0.2414648470797462 0  0.3436434970543172 0.3743236175823911 0  0.3765649579409498 0.2346032306023708 0  0.3862411203249935 0.2293080201888169 0  0.3125541355310679 0.2174284626835578 0  0.3272784643395017 0.2174232629457372 0  0.3348752705822316 0.2165201420472217 0  0.3497998287380586 0.2162289176852799 0  0.319877191385679 0.2308174713545124 0  0.3199271849027431 0.2215499206710377 0  0.3133403253306649 0.2254657033957812 0  0.3198433526340244 0.2406043114931417 0  0.3264603545297456 0.2254677777931837 0  0.3498118750564168 0.2244634883974543 0  0.3572801772935104 0.2173273935815939 0  0.3582214469498746 0.2931659544846034 0  0.267810768800799 0.2705998356288453 0  0.357905755861004 0.2256377483552234 0  0.3052148703286661 0.2238647990797835 0  0.3050207387251377 0.2160025078068285 0  0.2863686241214745 0.2524447136573785 0  0.364747590224077 0.2216658739063822 0  0.3716385577875085 0.2254972730720332 0  0.3871533862418662 0.2377916209307866 0  0.2751288526855082 0.2504894696471402 0  0.2973772572263381 0.2175617982546508 0  0.3312445077953667 0.2576480961126658 0  0.2703064389008618 0.2603298038584663 0  0.2969986277115119 0.2264901249637967 0  0.2888197773682229 0.2217624015035644 0  0.3199311709679444 0.2151099596031206 0  </DataArray>
</Points>
<Cells>
<DataArray  type="UInt32"  Name="connectivity"  format="ascii">0 1 2  3 1 4  5 6 7  3 8 4  6 7 9  5 7 10  11 7 10  11 2 4  1 2 4  11 4 10  6 12 9  8 5 10  8 4 10  13 14 15  16 17 18  19 14 15  20 21 22  23 24 18  25 26 27  21 22 28  29 30 31  23 24 32  33 34 35  24 16 18  23 36 18  37 36 38  39 40 41  42 32 43  42 32 44  45 46 47  48 49 50  25 26 51  37 36 18  45 32 47  52 53 54  55 36 56  20 21 15  37 17 18  57 58 59  30 31 60  61 17 62  45 32 44  29 63 58  64 52 54  25 51 65  29 58 59  66 16 43  25 67 68  23 36 56  26 27 69  23 32 47  24 32 43  33 34 70  25 67 27  71 72 73  55 74 54  36 53 38  71 75 73  29 30 72  39 40 76  66 26 69  8 5 77  6 12 78  64 74 54  48 50 79  19 21 15  49 50 80  57 78 79  81 82 83  29 63 31  81 51 84  81 82 85  86 87 80  81 58 84  13 14 88  30 72 73  66 26 84  45 46 89  57 50 59  71 90 72  13 17 62  91 77 92  24 16 43  42 44 93  71 94 90  86 50 59  71 94 95  96 75 28  13 17 88  66 43 69  97 44 93  57 78 85  91 98 92  61 16 17  52 14 88  66 63 84  3 98 92  22 75 73  91 77 83  71 95 75  66 63 99  55 36 53  26 51 84  97 70 100  86 87 90  3 8 92  86 72 59  12 48 79  46 35 89  66 16 99  91 98 101  8 77 92  22 75 28  96 75 76  52 88 38  25 68 101  12 78 79  57 50 79  97 44 100  39 75 76  63 58 84  61 60 62  102 68 101  44 100 89  37 17 88  86 50 80  20 30 73  97 67 93  5 77 103  20 22 73  6 78 103  29 72 59  61 16 99  45 44 89  63 31 99  91 51 83  102 98 101  42 27 93  33 70 100  20 30 60  82 77 83  86 90 72  81 51 83  82 78 85  39 95 75  81 58 85  57 58 85  94 87 90  20 15 62  42 43 69  25 101 65  82 77 103  82 78 103  91 51 65  61 31 60  67 27 93  5 6 103  55 53 54  13 15 62  52 53 38  42 27 69  61 31 99  20 60 62  91 101 65  33 35 89  33 100 89  37 88 38  </DataArray>
<DataArray  type="UInt32"  Name="offsets"  format="ascii">3 6 9 12 15 18 21 24 27 30 33 36 39 42 45 48 51 54 57 60 63 66 69 72 75 78 81 84 87 90 93 96 99 102 105 108 111 114 117 120 123 126 129 132 135 138 141 144 147 150 153 156 159 162 165 168 171 174 177 180 183 186 189 192 195 198 201 204 207 210 213 216 219 222 225 228 231 234 237 240 243 246 249 252 255 258 261 264 267 270 273 276 279 282 285 288 291 294 297 300 303 306 309 312 315 318 321 324 327 330 333 336 339 342 345 348 351 354 357 360 363 366 369 372 375 378 381 384 387 390 393 396 399 402 405 408 411 414 417 420 423 426 429 432 435 438 441 444 447 450 453 456 459 462 465 468 471 474 477 480 483 486 489 492 495 498 501 </DataArray>
<DataArray  type="UInt8"  Name="types"  format="ascii">5 5 5 5 5 5 5 5 5 5 5 5 5 5 5 5 5 5 5 5 5 5 5 5 5 5 5 5 5 5 5 5 5 5 5 5 5 5 5 5 5 5 5 5 5 5 5 5 5 5 5 5 5 5 5 5 5 5 5 5 5 5 5 5 5 5 5 5 5 5 5 5 5 5 5 5 5 5 5 5 5 5 5 5 5 5 5 5 5 5 5 5 5 5 5 5 5 5 5 5 5 5 5 5 5 5 5 5 5 5 5 5 5 5 5 5 5 5 5 5 5 5 5 5 5 5 5 5 5 5 5 5 5 5 5 5 5 5 5 5 5 5 5 5 5 5 5 5 5 5 5 5 5 5 5 5 5 5 5 5 5 5 5 5 5 5 5 </DataArray>
</Cells>
<PointData  Vectors="f_43-0"> 
<DataArray  type="Float64"  Name="f_43-0"  NumberOfComponents="3" format="ascii">-6.7250661424180056e-05 -1.6580756461057560e-04 0.0000000000000000e+00  -2.7588391844386010e-05 -1.5306755801334173e-04 0.0000000000000000e+00  -4.4667621972557501e-05 -1.8210288156104152e-04 0.0000000000000000e+00  1.1432029944247619e-05 -1.4567799503468226e-04 0.0000000000000000e+00  -1.7226199269229275e-05 -1.7520174584247545e-04 0.0000000000000000e+00  5.0568175051040528e-07 -2.0634501774819685e-04 0.0000000000000000e+00  -6.8603330975624886e-06 -2.3417217402043553e-04 0.0000000000000000e+00  -2.8471044174908457e-05 -2.2898558304522318e-04 0.0000000000000000e+00  6.6507763613586160e-06 -1.7650598237910117e-04 0.0000000000000000e+00  -2.5019875803222031e-05 -2.5270938400214713e-04 0.0000000000000000e+00  -1.4276574418111353e-05 -1.9793885567512476e-04 0.0000000000000000e+00  -3.4957434451802791e-05 -2.0392472183327275e-04 0.0000000000000000e+00  -1.5372674250784414e-05 -2.5918555950953418e-04 0.0000000000000000e+00  3.2872386232491029e+00 -1.8227718957343675e-01 0.0000000000000000e+00  3.5999639041878662e+00 -2.1043871714305445e-01 0.0000000000000000e+00  2.4339476357321863e+00 -2.0449143689197630e-01 0.0000000000000000e+00  2.4449548156583969e+00 -7.2757771616464267e-02 0.0000000000000000e+00  3.1778867149645209e+00 -1.1785105667306978e-01 0.0000000000000000e+00  3.6663200179741113e+00 1.6333555267150144e-03 0.0000000000000000e+00  3.1835291102516559e+00 -2.7783141654179377e-01 0.0000000000000000e+00  8.2845097784395449e-01 -6.5845178245658220e-02 0.0000000000000000e+00  1.3104672314021397e+00 -1.3671880601770844e-01 0.0000000000000000e+00  2.5449114381683524e-01 -1.8487968369565552e-02 0.0000000000000000e+00  3.5895845502972494e+00 1.1389530314364049e-01 0.0000000000000000e+00  3.4509857666398336e+00 3.4372601880801587e-02 0.0000000000000000e+00  -2.5358778295865098e-01 6.0028169807526545e-02 0.0000000000000000e+00  -7.0049355436834479e-02 5.5620992919496355e-02 0.0000000000000000e+00  1.0182866712840795e-01 6.2851149559857294e-02 0.0000000000000000e+00  3.8531158444741881e-01 -4.4331631975148375e-02 0.0000000000000000e+00  -2.1896123439782533e-01 4.0397029583178430e-02 0.0000000000000000e+00  9.5254716312148754e-02 1.3425185843948195e-02 0.0000000000000000e+00  3.7450549860639204e-01 2.4177947752548226e-03 0.0000000000000000e+00  3.3746541406754251e+00 1.1219291614475482e-01 0.0000000000000000e+00  1.4817496866861672e+00 1.0255338183308070e-01 0.0000000000000000e+00  9.9208310449676251e-01 9.3371310052676446e-02 0.0000000000000000e+00  3.3098726786597137e+00 3.0455416581773809e-01 0.0000000000000000e+00  3.4447666385332401e+00 -3.0050263968548130e-03 0.0000000000000000e+00  3.6466726230682012e+00 -8.8231501327240308e-02 0.0000000000000000e+00  3.4914598198264453e+00 -1.0592766098346199e-01 0.0000000000000000e+00  -4.8332469143660689e-01 2.1702859577075271e-02 0.0000000000000000e+00  -4.9502584306119851e-01 1.9487744211013951e-02 0.0000000000000000e+00  -3.3371724098254013e-01 6.8133334915899107e-03 0.0000000000000000e+00  1.0445367124642488e+00 2.5848830961695390e-02 0.0000000000000000e+00  1.7527052570988173e+00 -1.9983601439050112e-02 0.0000000000000000e+00  1.6454852752600500e+00 5.3289633766280424e-02 0.0000000000000000e+00  3.5248958121803446e+00 2.2213333833097590e-01 0.0000000000000000e+00  3.7378938094371432e+00 3.5802886303992104e-01 0.0000000000000000e+00  3.6282558195858092e+00 2.2316666692872922e-01 0.0000000000000000e+00  -2.4916185903443233e-05 -2.8052725327210726e-04 0.0000000000000000e+00  -3.5429776223040518e-05 -2.9752918404516896e-04 0.0000000000000000e+00  -3.1302527787700779e-01 1.1915383129880030e-02 0.0000000000000000e+00  -3.1358345501677237e-01 5.0563649857594116e-02 0.0000000000000000e+00  3.3275271943403277e+00 -1.4155269020299038e-01 0.0000000000000000e+00  3.2243181406802823e+00 -6.1214515178765014e-02 0.0000000000000000e+00  2.8084895334938560e+00 -6.6881406964206733e-02 0.0000000000000000e+00  2.9376564349223626e+00 -5.7623203376876153e-03 0.0000000000000000e+00  3.2815293436180126e+00 7.5219229454890887e-02 0.0000000000000000e+00  -3.8231816226212095e-01 2.5373072993313196e-02 0.0000000000000000e+00  -3.4266807970809043e-01 4.6004444780191937e-02 0.0000000000000000e+00  -4.1138591306050692e-01 3.6383790083559103e-02 0.0000000000000000e+00  8.4220763075316962e-01 -4.7051930800040290e-02 0.0000000000000000e+00  1.4694087020276489e+00 -6.9317081970400221e-02 0.0000000000000000e+00  2.0242425966004340e+00 -1.3538281731012985e-01 0.0000000000000000e+00  2.9839760596575723e-02 3.7137019721178596e-02 0.0000000000000000e+00  2.7843251943975775e+00 -1.1894028839764299e-01 0.0000000000000000e+00  -3.1625594255660616e-01 4.5203115015535179e-02 0.0000000000000000e+00  5.4152634936325117e-01 1.9564549317199083e-02 0.0000000000000000e+00  -1.4457436578174385e-01 7.5469206416555856e-02 0.0000000000000000e+00  -2.7903841303357507e-01 5.2646886342086925e-02 0.0000000000000000e+00  4.7396717831384633e-01 4.1376363751692312e-02 0.0000000000000000e+00  2.9976280660997406e-01 9.6934213239574699e-02 0.0000000000000000e+00  -4.1028634035747485e-01 3.3189743938991698e-02 0.0000000000000000e+00  -3.5137604796167171e-01 3.7430481937102821e-02 0.0000000000000000e+00  -3.4285075453128741e-02 1.4362668677747487e-02 0.0000000000000000e+00  2.2972920934948924e+00 -5.8410054065037131e-02 0.0000000000000000e+00  -2.9999966420956031e-01 2.2759593576162265e-02 0.0000000000000000e+00  -4.4052521721533494e-01 2.4404604571154530e-02 0.0000000000000000e+00  -2.1493670186277386e-01 8.8784889892851836e-03 0.0000000000000000e+00  -2.4738463896919760e-01 8.9641761712736991e-03 0.0000000000000000e+00  -2.3896973234373159e-01 7.1716550918091556e-03 0.0000000000000000e+00  -2.6035497035973620e-01 6.7736337418938400e-03 0.0000000000000000e+00  -3.5547826415498263e-01 4.3748621530948106e-02 0.0000000000000000e+00  -3.1324693067012482e-01 1.9335062176273007e-02 0.0000000000000000e+00  -3.3772845878603447e-01 3.0427548590113752e-02 0.0000000000000000e+00  -1.6586538496312384e-01 5.2180126190755315e-02 0.0000000000000000e+00  -3.7407169744403446e-01 3.0003935240872234e-02 0.0000000000000000e+00  -4.2647442500276228e-01 2.6491125542567939e-02 0.0000000000000000e+00  -3.1175480190533339e-01 9.0826730770957181e-03 0.0000000000000000e+00  3.6278595235451969e+00 -1.5153494847265292e-01 0.0000000000000000e+00  2.7601717334932325e+00 1.8475937479263010e-01 0.0000000000000000e+00  -4.4908104746073191e-01 2.8263854931679232e-02 0.0000000000000000e+00  -3.0036781459231066e-01 2.6314567474722030e-02 0.0000000000000000e+00  -1.6631458136517124e-01 6.0771915041794152e-03 0.0000000000000000e+00  3.3856927398608677e-01 6.4385983746511430e-02 0.0000000000000000e+00  -4.3131710694917857e-01 1.9379911656813006e-02 0.0000000000000000e+00  -4.7316995685148866e-01 2.6703625222488380e-02 0.0000000000000000e+00  -1.2787953981286770e-01 2.6756412989362662e-03 0.0000000000000000e+00  1.9130044137373411e-01 8.4222230263724301e-02 0.0000000000000000e+00  -1.8350267353655578e-01 9.6168976351550944e-03 0.0000000000000000e+00  9.5146836400939694e-01 -1.9901618754171173e-02 0.0000000000000000e+00  1.1117705117842895e+00 7.4239450320296413e-02 0.0000000000000000e+00  -2.9501421598842470e-01 3.5625714251397850e-02 0.0000000000000000e+00  -2.2610362494873806e-01 2.2622946098419593e-02 0.0000000000000000e+00  -1.6984915347117882e-01 4.4113966465196344e-03 0.0000000000000000e+00  </DataArray> 
</PointData> 
</Piece>
</UnstructuredGrid>
</VTKFile>