<?xml version="1.0"?>
<VTKFile type="UnstructuredGrid"  version="0.1"  >
<UnstructuredGrid>
<Piece  NumberOfPoints="104" NumberOfCells="170">
<Points>
<DataArray  type="Float64"  NumberOfComponents="3"  format="ascii">1.835188936345112 0.2050000000000699 0  1.838465412967181 0.2953145553852501 0  1.915883512473161 0.2050000000000692 0  1.833166318986108 0.1007828475280248 0  2.383594446803656 0.41 0  2.271253957291315 0.41 0  2.346386298105263 0.3062476289039515 0  1.943162250261133 0.2848182236928814 0  1.943162250261127 0.1251817763071746 0  2.244824738199097 0.3091885999356265 0  1.317087908068179 0.2834507950760127 0  1.416789257258389 0.3075294577736497 0  1.357724299039236 0.2303555143487852 0  2.383594446803425 0 0  2.301748441448983 0.1032848369023014 0  2.415100580332905 0.08367007402675902 0  1.674965418778818 0.41 0  1.58737143976041 0.41 0  1.617304647871871 0.3102553946317155 0  1.587371439758838 0 0  1.674965418777374 0 0  1.627799041349754 0.08170835291169204 0  2.01253088870001 0.2050000000000507 0  1.419591277297145 0.2050000000000071 0  1.421253448505726 0.41 0  1.355827918100823 0.3414955155607449 0  1.421253448503939 0 0  1.418271536314166 0.09353562972960013 0  1.355827918100725 0.06850448443910542 0  2.271253957290865 0 0  2.221794121152559 0.193316850609006 0  2.14411344490712 0.1276195594235362 0  2.20472152769965 0.0713281875562741 0  2.162836591190598 0.41 0  2.147307993563104 0.2912592059815138 0  2.038256300678318 0.30845338105422 0  2.047027225616214 0.1093313109621388 0  1.481410117014457 0.06937107043222147 0  1.48141011701467 0.3406289295679558 0  1.524155460997452 0.2819410593007779 0  1.564450317521975 0.2271796767815198 0  1.465985145565885 0.2641043271703594 0  1.266535089879536 0 0  1.342519516046404 0 0  1.279016580461126 0.07083697001675755 0  1.342519516048286 0.41 0  1.274599158297837 0.3398495556128484 0  2.108400983319523 0.2055533675589543 0  2.373655112860451 0.1537499999996177 0  1.628719644697639 0.2049999999998413 0  1.211433695886656 0.1017136889209831 0  1.154904552424504 0.06969164993518225 0  1.171970583870903 0.1546087622866204 0  1.701137648393037 0.3376494258761434 0  1.700761363836473 0.07263158433296307 0  2.102498890674862 0.3526963313409883 0  1.313454781190754 0.1289288827375083 0  1.297747271073664 0.2033748759239161 0  1.375324131717186 0.1546989106163036 0  1.545933585256563 0.3495591173405724 0  1.675302090383742 0.2650203692236395 0  1.552569533868087 0.0624528013784801 0  1.859776908881246 0.41 0  1.77165877836765 0.3410140663813219 0  1.859776908880082 0 0  1.771658778367727 0.06898593361867472 0  1.765729001826854 0.41 0  1.765729001825544 0 0  1.518790312518014 0.1283243218597927 0  1.503227144622031 0.2021724267143327 0  1.582623387495486 0.1516962052714668 0  2.419800870255347 0.3337695350602363 0  1.255220929810424 0.1520691346915538 0  1.502836389106271 0 0  1.502836389107956 0.41 0  1.193204177141305 0 0  1.221874249400422 0.04798078752710374 0  1.215451113850732 0.2103314603357224 0  1.731954290521287 0.2842886317693051 0  1.779077369991058 0.2291039503226278 0  1.249863529963017 0.2672258935273379 0  2.317206511801082 0.2150857089256538 0  2.5 0 0  1.781967815577297 0.1551145542927359 0  2.5 0.2049999999994743 0  2.5 0.3074999999997183 0  2.416929161926448 0.2327464213792422 0  2.5 0.1024999999997612 0  2.5 0.41 0  1.909407874218324 0.3475920460897405 0  1.898307784123137 0.0640781879350478 0  2.058205329870775 0.41 0  1.957227977488067 0.41 0  1.976157046732302 0.3420030364334853 0  1.957227977487062 0 0  2.058205329869943 0 0  1.976157046732181 0.06799696356641864 0  1.455141435660884 0.1456544069830235 0  1.728567729514045 0.1282404601140156 0  1.712479779067637 0.2028183087747138 0  2.116985070695456 0.06169297422380063 0  2.162836591189951 0 0  1.665417171861409 0.1438806335169778 0  2.443165304650843 0.1549388660538532 0  </DataArray>
</Points>
<Cells>
<DataArray  type="UInt32"  Name="connectivity"  format="ascii">0 1 2  0 3 2  4 5 6  7 1 2  8 3 2  5 6 9  10 11 12  13 14 15  16 17 18  19 20 21  22 7 2  22 8 2  23 11 12  24 11 25  26 27 28  29 13 14  30 31 32  33 34 9  10 11 25  22 7 35  22 8 36  26 27 37  24 11 38  39 18 40  23 11 41  42 43 44  30 14 32  45 46 25  43 44 28  22 35 47  22 36 47  48 14 15  49 18 40  50 51 52  34 35 47  31 36 47  16 18 53  20 21 54  33 34 55  30 34 47  30 31 47  56 57 58  39 18 59  49 18 60  57 12 58  5 33 9  17 18 59  19 21 61  24 45 25  43 26 28  30 34 9  62 1 63  64 3 65  62 66 63  67 64 65  68 69 70  4 6 71  69 40 70  50 44 72  26 73 37  74 24 38  75 51 76  50 52 72  77 52 72  78 1 79  66 16 53  20 67 54  56 28 58  10 46 80  56 44 72  6 9 81  30 9 81  0 1 79  82 13 15  27 28 58  21 61 70  68 61 70  77 57 72  77 57 80  0 3 83  78 1 63  84 85 86  10 46 25  56 44 28  82 87 15  85 86 71  66 53 63  67 54 65  50 51 76  88 4 71  7 1 89  8 3 90  10 57 80  56 57 72  91 92 93  94 95 96  91 35 93  95 36 96  10 57 12  88 85 71  48 14 81  11 38 41  27 37 97  62 1 89  64 3 90  30 14 81  73 19 61  17 74 59  39 38 41  68 37 97  98 99 83  27 58 97  23 58 97  99 79 83  34 35 55  31 36 100  101 29 32  92 62 89  64 94 90  23 12 58  74 38 59  73 37 61  7 35 93  8 36 96  75 42 76  23 69 41  23 69 97  29 14 32  39 69 41  68 69 97  33 91 55  95 101 100  91 35 55  95 36 100  39 69 40  42 44 76  6 86 71  39 38 59  68 37 61  101 32 100  18 53 60  21 54 102  50 44 76  87 84 103  21 70 102  49 70 102  31 32 100  78 53 60  98 54 102  98 65 83  49 99 102  49 99 60  49 40 70  3 65 83  98 99 102  78 99 60  78 53 63  98 54 65  92 89 93  94 90 96  48 86 81  78 99 79  6 86 81  0 79 83  87 15 103  7 89 93  8 90 96  84 86 103  48 15 103  48 86 103  </DataArray>
<DataArray  type="UInt32"  Name="offsets"  format="ascii">3 6 9 12 15 18 21 24 27 30 33 36 39 42 45 48 51 54 57 60 63 66 69 72 75 78 81 84 87 90 93 96 99 102 105 108 111 114 117 120 123 126 129 132 135 138 141 144 147 150 153 156 159 162 165 168 171 174 177 180 183 186 189 192 195 198 201 204 207 210 213 216 219 222 225 228 231 234 237 240 243 246 249 252 255 258 261 264 267 270 273 276 279 282 285 288 291 294 297 300 303 306 309 312 315 318 321 324 327 330 333 336 339 342 345 348 351 354 357 360 363 366 369 372 375 378 381 384 387 390 393 396 399 402 405 408 411 414 417 420 423 426 429 432 435 438 441 444 447 450 453 456 459 462 465 468 471 474 477 480 483 486 489 492 495 498 501 504 507 510 </DataArray>
<DataArray  type="UInt8"  Name="types"  format="ascii">5 5 5 5 5 5 5 5 5 5 5 5 5 5 5 5 5 5 5 5 5 5 5 5 5 5 5 5 5 5 5 5 5 5 5 5 5 5 5 5 5 5 5 5 5 5 5 5 5 5 5 5 5 5 5 5 5 5 5 5 5 5 5 5 5 5 5 5 5 5 5 5 5 5 5 5 5 5 5 5 5 5 5 5 5 5 5 5 5 5 5 5 5 5 5 5 5 5 5 5 5 5 5 5 5 5 5 5 5 5 5 5 5 5 5 5 5 5 5 5 5 5 5 5 5 5 5 5 5 5 5 5 5 5 5 5 5 5 5 5 5 5 5 5 5 5 5 5 5 5 5 5 5 5 5 5 5 5 5 5 5 5 5 5 5 5 5 5 5 5 </DataArray>
</Cells>
<PointData  Vectors="f_43-0"> 
<DataArray  type="Float64"  Name="f_43-0"  NumberOfComponents="3" format="ascii">4.0764348641522102e-01 -1.1425251223765829e-04 0.0000000000000000e+00  3.8345789094095950e-01 4.0052808640699327e-03 0.0000000000000000e+00  4.1012863375804659e-01 6.6783042132538128e-05 0.0000000000000000e+00  3.8805366559567656e-01 -3.5824805180466658e-03 0.0000000000000000e+00  0.0000000000000000e+00 0.0000000000000000e+00 0.0000000000000000e+00  0.0000000000000000e+00 0.0000000000000000e+00 0.0000000000000000e+00  3.7467373992500302e-01 5.7887975330355680e-03 0.0000000000000000e+00  4.0566869947823736e-01 1.6496395453200329e-03 0.0000000000000000e+00  4.0462340104231720e-01 -1.0890818214695952e-03 0.0000000000000000e+00  3.9608359782709385e-01 -4.1848400270460637e-03 0.0000000000000000e+00  4.0847279113981066e-01 8.7000251501182185e-04 0.0000000000000000e+00  3.8939638369651552e-01 1.3880264976896090e-03 0.0000000000000000e+00  4.1101792624801398e-01 6.7193727833790269e-04 0.0000000000000000e+00  0.0000000000000000e+00 0.0000000000000000e+00 0.0000000000000000e+00  3.6954483039471053e-01 -2.5870627816940438e-04 0.0000000000000000e+00  3.9697867463127900e-01 -7.2328246652817252e-03 0.0000000000000000e+00  0.0000000000000000e+00 0.0000000000000000e+00 0.0000000000000000e+00  0.0000000000000000e+00 0.0000000000000000e+00 0.0000000000000000e+00  3.7123803557785034e-01 -3.4838916129471581e-04 0.0000000000000000e+00  0.0000000000000000e+00 0.0000000000000000e+00 0.0000000000000000e+00  0.0000000000000000e+00 0.0000000000000000e+00 0.0000000000000000e+00  3.8239394456683240e-01 2.5989908960429058e-04 0.0000000000000000e+00  4.0761442842277373e-01 1.2942697823346834e-03 0.0000000000000000e+00  4.1097364304460171e-01 1.9001917078756722e-03 0.0000000000000000e+00  0.0000000000000000e+00 0.0000000000000000e+00 0.0000000000000000e+00  3.9620853697268738e-01 -6.6158339232542409e-04 0.0000000000000000e+00  0.0000000000000000e+00 0.0000000000000000e+00 0.0000000000000000e+00  3.9083325793883544e-01 -1.9757141626450272e-03 0.0000000000000000e+00  3.9618289575338728e-01 4.7235818952331960e-04 0.0000000000000000e+00  0.0000000000000000e+00 0.0000000000000000e+00 0.0000000000000000e+00  4.0611216964875813e-01 -6.7563455228251642e-04 0.0000000000000000e+00  4.1151592878231308e-01 1.1113769330955245e-05 0.0000000000000000e+00  3.9365112544676661e-01 -5.5493236668963965e-04 0.0000000000000000e+00  0.0000000000000000e+00 0.0000000000000000e+00 0.0000000000000000e+00  3.8429150634967213e-01 2.6608288770273820e-04 0.0000000000000000e+00  3.8333983131957095e-01 3.1638744563068275e-03 0.0000000000000000e+00  3.8927239705570976e-01 -2.4628937296765113e-03 0.0000000000000000e+00  4.1182773000066536e-01 2.4459853069563843e-03 0.0000000000000000e+00  4.1829664197860267e-01 -2.8685161240611682e-03 0.0000000000000000e+00  4.0231870341801718e-01 2.2229032318235877e-03 0.0000000000000000e+00  4.0901406604764251e-01 1.7129665263756145e-03 0.0000000000000000e+00  4.1156655460096359e-01 2.5910431095053179e-03 0.0000000000000000e+00  0.0000000000000000e+00 0.0000000000000000e+00 0.0000000000000000e+00  0.0000000000000000e+00 0.0000000000000000e+00 0.0000000000000000e+00  3.8450015917040270e-01 9.4630026604719997e-04 0.0000000000000000e+00  0.0000000000000000e+00 0.0000000000000000e+00 0.0000000000000000e+00  3.8430601924122032e-01 -5.9000220178909559e-04 0.0000000000000000e+00  4.1044367720452701e-01 4.5514621066141699e-04 0.0000000000000000e+00  4.1587466520470262e-01 -1.8247135073824240e-03 0.0000000000000000e+00  4.0919376453378892e-01 2.2705649855842827e-03 0.0000000000000000e+00  4.0676782038277176e-01 -1.7179531440637116e-03 0.0000000000000000e+00  3.9869010361566093e-01 -2.9418056525617781e-04 0.0000000000000000e+00  4.1117386727519412e-01 -1.1432989652445484e-03 0.0000000000000000e+00  4.1419696129022371e-01 5.4858176416920116e-03 0.0000000000000000e+00  3.9719757753201418e-01 -1.0623780898332568e-03 0.0000000000000000e+00  4.0770439137143544e-01 -5.4018780864757100e-03 0.0000000000000000e+00  4.1544252020043382e-01 3.9885513565698639e-04 0.0000000000000000e+00  4.1238171514144506e-01 5.0597731911083011e-04 0.0000000000000000e+00  4.0879895158852170e-01 -8.1346735276717637e-04 0.0000000000000000e+00  4.0470001700886460e-01 2.3182638916048734e-03 0.0000000000000000e+00  4.1133845848746320e-01 3.5970333868447510e-03 0.0000000000000000e+00  4.0135541860988289e-01 -2.8509945930528663e-03 0.0000000000000000e+00  0.0000000000000000e+00 0.0000000000000000e+00 0.0000000000000000e+00  3.9561997360365625e-01 7.0317501107586885e-04 0.0000000000000000e+00  0.0000000000000000e+00 0.0000000000000000e+00 0.0000000000000000e+00  3.9432502655529639e-01 1.1568244290163724e-03 0.0000000000000000e+00  0.0000000000000000e+00 0.0000000000000000e+00 0.0000000000000000e+00  0.0000000000000000e+00 0.0000000000000000e+00 0.0000000000000000e+00  4.1286092028660165e-01 -1.3126260615471199e-03 0.0000000000000000e+00  4.1154118610597035e-01 1.3500113585954935e-03 0.0000000000000000e+00  4.0858771431936347e-01 -5.9884890934079811e-04 0.0000000000000000e+00  4.0528781792228646e-01 9.0399443197460155e-03 0.0000000000000000e+00  4.1012331441630695e-01 -1.6945437557653411e-03 0.0000000000000000e+00  0.0000000000000000e+00 0.0000000000000000e+00 0.0000000000000000e+00  0.0000000000000000e+00 0.0000000000000000e+00 0.0000000000000000e+00  0.0000000000000000e+00 0.0000000000000000e+00 0.0000000000000000e+00  4.0677233964664539e-01 -4.0192802766761057e-03 0.0000000000000000e+00  4.1266157773797207e-01 2.9964687091336685e-04 0.0000000000000000e+00  4.0026277747618727e-01 6.2176874502291692e-04 0.0000000000000000e+00  4.0936970656712868e-01 1.0413289754039455e-03 0.0000000000000000e+00  4.0965640665690228e-01 1.7147237599848221e-03 0.0000000000000000e+00  4.0823812722988317e-01 2.9578239221632959e-03 0.0000000000000000e+00  0.0000000000000000e+00 0.0000000000000000e+00 0.0000000000000000e+00  4.0765395455482262e-01 -1.4020099711229085e-03 0.0000000000000000e+00  4.0909092191838792e-01 1.4705715890600030e-03 0.0000000000000000e+00  3.8140962318045313e-01 -6.7013575829557312e-03 0.0000000000000000e+00  4.1268904489239921e-01 9.7355509674503405e-04 0.0000000000000000e+00  3.8781687426946454e-01 6.1260885970066100e-03 0.0000000000000000e+00  0.0000000000000000e+00 0.0000000000000000e+00 0.0000000000000000e+00  4.1720453693697068e-01 -9.7922212483341105e-04 0.0000000000000000e+00  4.1536171166882535e-01 2.5642360490458690e-03 0.0000000000000000e+00  0.0000000000000000e+00 0.0000000000000000e+00 0.0000000000000000e+00  0.0000000000000000e+00 0.0000000000000000e+00 0.0000000000000000e+00  3.8500644992920441e-01 5.3467538119698430e-03 0.0000000000000000e+00  0.0000000000000000e+00 0.0000000000000000e+00 0.0000000000000000e+00  0.0000000000000000e+00 0.0000000000000000e+00 0.0000000000000000e+00  3.8927495617090452e-01 -3.9034348654077536e-03 0.0000000000000000e+00  4.1590524202944157e-01 -1.7998741807141356e-03 0.0000000000000000e+00  4.1454434073514657e-01 3.7822642810817424e-04 0.0000000000000000e+00  4.1175483571608856e-01 1.8672905996981893e-03 0.0000000000000000e+00  4.1695193207133341e-01 2.0845951170077016e-03 0.0000000000000000e+00  0.0000000000000000e+00 0.0000000000000000e+00 0.0000000000000000e+00  4.1618707905902946e-01 -8.9949969310879681e-04 0.0000000000000000e+00  4.1128548848799457e-01 1.7575589750641982e-03 0.0000000000000000e+00  </DataArray> 
</PointData> 
</Piece>
</UnstructuredGrid>
</VTKFile>