<?xml version="1.0"?>
<VTKFile type="UnstructuredGrid"  version="0.1"  >
<UnstructuredGrid>
<Piece  NumberOfPoints="102" NumberOfCells="171">
<Points>
<DataArray  type="Float64"  NumberOfComponents="3"  format="ascii">0.476773013087985 0.1999999999998713 0  0.4693047108508938 0.1970915826863783 0  0.4693047108503577 0.2040749161535231 0  0.4917096175621762 0.1999999999998808 0  0.4842413153250809 0.1970915826863873 0  0.4842413153245942 0.2040749161535287 0  0.5066462220363641 0.199999999999908 0  0.4991779197992749 0.1970915826863902 0  0.4991779197988497 0.2040749161535382 0  0.5215828265105155 0.1999999999999228 0  0.5141145242734466 0.1970915826863843 0  0.5141145242731028 0.2040749161535395 0  0.5365194309847112 0.1999999999999436 0  0.5290511287476175 0.1970915826863981 0  0.5290511287473298 0.2040749161535501 0  0.5327852798661811 0.19 0  0.5253169776290537 0.19 0  0.5178486753919799 0.19 0  0.5103803731549078 0.19 0  0.4879754664436223 0.19 0  0.4805071642065402 0.19 0  0.502912070917822 0.19 0  0.4954437686807294 0.19 0  0.4767730130872753 0.2056971942287455 0  0.4917096175615203 0.2056971942287492 0  0.5066462220358396 0.2056971942287649 0  0.5215828265100828 0.2056971942287677 0  0.5365194309843644 0.2056971942287865 0  0.5439623148931173 0.2040856076781014 0  0.5365194309847112 0.1943028057711659 0  0.5215828265105155 0.1943028057711514 0  0.4767730130879849 0.1943028057711153 0  0.4917096175621761 0.1943028057711214 0  0.5066462220363641 0.1943028057711422 0  0.480507164205851 0.21 0  0.4879754664429498 0.21 0  0.5103803731544119 0.21 0  0.5178486753915261 0.21 0  0.5402535821029386 0.21 0  0.54772188434007 0.21 0  0.4954437686800938 0.21 0  0.502912070917267 0.21 0  0.5253169776286404 0.21 0  0.5327852798657868 0.21 0  0.4730388619686996 0.21 0  0.4991779197992711 0.167693385507626 0  0.4900906149793102 0.1565876018036352 0  0.5082652246192162 0.1565876018036352 0  0.499237761463083 0.2192785032300353 0  0.4993542269391089 0.2308107468212473 0  0.5064903940750056 0.2246838314870058 0  0.5123638022628456 0.2310955071885417 0  0.536567636007916 0.2275987754591341 0  0.5347760817351684 0.2414500964404198 0  0.5283542774025207 0.2302880001042248 0  0.5455709551586724 0.2324144452751203 0  0.546982877175164 0.2233942294772845 0  0.5365194309843644 0.2180863504285254 0  0.5444469726554123 0.2157339702670886 0  0.5588244563271773 0.225349035787779 0  0.5519051872593019 0.2166420053265535 0  0.5216178319364539 0.1813492122870838 0  0.5265047000024197 0.2223941974774756 0  0.5286910337265995 0.2154702409242758 0  0.5150278681324471 0.2228450308306156 0  0.5214285426002536 0.2161011329323836 0  0.4767730130872752 0.2184019876485795 0  0.5209814004512184 0.2362962593649592 0  0.5084573036363184 0.2395108277223441 0  0.553378981997341 0.2322691570724318 0  0.5504647692515866 0.2417078359721865 0  0.4910031975930484 0.2171006717137592 0  0.5075668509025225 0.2171084086245455 0  0.5143590539697885 0.2155988592715468 0  0.4917096175621761 0.1826726487251064 0  0.5066462220363641 0.1826726487251085 0  0.5208355992062484 0.2285465546466679 0  0.4767380076620556 0.1813492122870721 0  0.4842366479349569 0.1837683957184343 0  0.5141191916635692 0.1837683957184422 0  0.4867628426197099 0.1672556638427207 0  0.5290511287476175 0.1834818376483974 0  0.5115929969788211 0.1672556638427288 0  0.4841984187204001 0.2159109988582109 0  0.5294745265341012 0.1761054820336709 0  0.5366299525895074 0.1825690825227473 0  0.4842413153250809 0.1755365127551258 0  0.4923756029794709 0.2245693836696246 0  0.4869999746943883 0.2308048359320609 0  0.5141145242734466 0.1755365127551412 0  0.4846260107628763 0.2228898464509046 0  0.4767730130879849 0.1622083790703084 0  0.5215828265105156 0.1622083790703317 0  0.4991779197992725 0.1783172034453956 0  0.4923389098589435 0.1741809711526818 0  0.4767269250530047 0.1713973971258736 0  0.506016929739597 0.1741809711526895 0  0.5349004284018322 0.1565876018036672 0  0.5316967135713353 0.1673421178078786 0  0.5216289307659581 0.1713997813123399 0  0.4991779197992735 0.1849089375109228 0  0.5631143150331265 0.2366473934541688 0  </DataArray>
</Points>
<Cells>
<DataArray  type="UInt32"  Name="connectivity"  format="ascii">0 1 2  3 4 5  6 7 8  9 10 11  12 13 14  9 13 14  6 10 11  3 7 8  0 4 5  15 16 13  17 18 10  19 20 4  21 22 7  0 2 23  3 5 24  6 8 25  9 11 26  12 14 27  12 28 27  9 14 26  6 11 25  3 8 24  0 5 23  15 13 29  16 13 30  9 13 30  12 13 29  0 4 31  20 4 31  0 1 31  19 4 32  18 10 33  21 7 33  22 7 32  17 10 30  6 7 33  6 10 33  3 4 32  3 7 32  9 10 30  34 35 5  36 37 11  38 39 28  40 41 8  42 43 14  34 5 23  44 2 23  35 5 24  40 8 24  36 11 25  41 8 25  42 14 26  43 14 27  38 28 27  37 11 26  44 34 23  35 40 24  41 36 25  43 38 27  37 42 26  22 19 32  18 21 33  16 17 30  45 46 47  40 41 48  49 50 51  52 53 54  52 53 55  56 57 58  59 56 60  52 56 57  16 17 61  52 62 57  62 57 63  64 62 65  44 34 66  67 53 54  43 38 57  49 68 51  59 56 69  70 53 55  40 48 71  41 48 72  52 56 55  64 73 65  22 19 74  18 21 75  64 62 76  20 77 78  17 61 79  45 46 80  16 61 81  56 55 69  45 47 82  34 66 83  35 40 71  41 36 72  84 85 81  52 62 54  86 74 78  49 87 88  67 68 51  89 75 79  38 57 58  43 57 63  90 71 83  64 72 73  91 46 80  19 20 78  17 18 79  15 16 81  34 35 83  92 47 82  36 37 73  45 93 94  86 77 95  45 93 96  92 97 98  45 94 80  19 74 78  84 61 99  18 75 79  45 96 82  89 61 99  90 71 87  37 42 65  15 85 81  64 72 50  86 74 94  89 75 96  38 39 58  35 71 83  36 72 73  22 74 100  21 75 100  42 43 63  84 61 81  86 80 95  84 98 99  86 77 78  89 61 79  89 82 99  49 48 87  49 48 50  90 66 83  37 73 65  48 71 87  48 72 50  39 60 58  42 65 63  92 98 99  91 80 95  59 101 69  21 22 100  92 82 99  64 50 51  86 94 80  93 74 94  93 75 96  89 96 82  70 101 69  93 74 100  93 75 100  56 60 58  62 65 63  90 87 88  62 54 76  64 76 51  70 55 69  67 76 51  67 54 76  </DataArray>
<DataArray  type="UInt32"  Name="offsets"  format="ascii">3 6 9 12 15 18 21 24 27 30 33 36 39 42 45 48 51 54 57 60 63 66 69 72 75 78 81 84 87 90 93 96 99 102 105 108 111 114 117 120 123 126 129 132 135 138 141 144 147 150 153 156 159 162 165 168 171 174 177 180 183 186 189 192 195 198 201 204 207 210 213 216 219 222 225 228 231 234 237 240 243 246 249 252 255 258 261 264 267 270 273 276 279 282 285 288 291 294 297 300 303 306 309 312 315 318 321 324 327 330 333 336 339 342 345 348 351 354 357 360 363 366 369 372 375 378 381 384 387 390 393 396 399 402 405 408 411 414 417 420 423 426 429 432 435 438 441 444 447 450 453 456 459 462 465 468 471 474 477 480 483 486 489 492 495 498 501 504 507 510 513 </DataArray>
<DataArray  type="UInt8"  Name="types"  format="ascii">5 5 5 5 5 5 5 5 5 5 5 5 5 5 5 5 5 5 5 5 5 5 5 5 5 5 5 5 5 5 5 5 5 5 5 5 5 5 5 5 5 5 5 5 5 5 5 5 5 5 5 5 5 5 5 5 5 5 5 5 5 5 5 5 5 5 5 5 5 5 5 5 5 5 5 5 5 5 5 5 5 5 5 5 5 5 5 5 5 5 5 5 5 5 5 5 5 5 5 5 5 5 5 5 5 5 5 5 5 5 5 5 5 5 5 5 5 5 5 5 5 5 5 5 5 5 5 5 5 5 5 5 5 5 5 5 5 5 5 5 5 5 5 5 5 5 5 5 5 5 5 5 5 5 5 5 5 5 5 5 5 5 5 5 5 5 5 5 5 5 5 </DataArray>
</Cells>
<PointData  Vectors="f_43-0"> 
<DataArray  type="Float64"  Name="f_43-0"  NumberOfComponents="3" format="ascii">-9.4697370401116630e-05 1.5829677074354826e-03 0.0000000000000000e+00  -8.4657973156810709e-05 1.5570227838954042e-03 0.0000000000000000e+00  -1.1071115398333146e-04 1.5574305967987609e-03 0.0000000000000000e+00  -9.2668525335174356e-05 1.6261604252728386e-03 0.0000000000000000e+00  -8.5010653642722645e-05 1.6055586491621711e-03 0.0000000000000000e+00  -1.0598778814019356e-04 1.6056851789667417e-03 0.0000000000000000e+00  -9.0275209491600512e-05 1.6608391620583957e-03 0.0000000000000000e+00  -8.4432378670286392e-05 1.6442933505724734e-03 0.0000000000000000e+00  -1.0140316854398312e-04 1.6442587190407826e-03 0.0000000000000000e+00  -8.7729947296279504e-05 1.6893870845570594e-03 0.0000000000000000e+00  -8.3165258428630838e-05 1.6756869699639978e-03 0.0000000000000000e+00  -9.7180399389825439e-05 1.6755892483564028e-03 0.0000000000000000e+00  -8.5201706251050426e-05 1.7139038893744440e-03 0.0000000000000000e+00  -8.1445632769256403e-05 1.7020077690100171e-03 0.0000000000000000e+00  -9.3445656068335398e-05 1.7019223379425396e-03 0.0000000000000000e+00  -6.9295284297571304e-05 1.7076541072314898e-03 0.0000000000000000e+00  -6.9457583128739762e-05 1.6953115654939400e-03 0.0000000000000000e+00  -6.9347368559726587e-05 1.6820566248577965e-03 0.0000000000000000e+00  -6.8900838521328362e-05 1.6676273019522851e-03 0.0000000000000000e+00  -6.5127003588501541e-05 1.6146349344603567e-03 0.0000000000000000e+00  -6.2917929083382366e-05 1.5927251323081255e-03 0.0000000000000000e+00  -6.8081890205553953e-05 1.6517811951481675e-03 0.0000000000000000e+00  -6.6834145720275436e-05 1.6342087870791721e-03 0.0000000000000000e+00  -1.1377214947504139e-04 1.5827528340550928e-03 0.0000000000000000e+00  -1.0801874882229875e-04 1.6258549879424274e-03 0.0000000000000000e+00  -1.0278159537131918e-04 1.6605310729840999e-03 0.0000000000000000e+00  -9.8217189386417286e-05 1.6891380212757802e-03 0.0000000000000000e+00  -9.4375432399241484e-05 1.7137528772465653e-03 0.0000000000000000e+00  -9.0269161462337409e-05 1.7251126089984302e-03 0.0000000000000000e+00  -7.5980639502335528e-05 1.7137937930692547e-03 0.0000000000000000e+00  -7.7218337273928328e-05 1.6892157447899422e-03 0.0000000000000000e+00  -7.5698731196915901e-05 1.5821311904147435e-03 0.0000000000000000e+00  -7.7356065631093478e-05 1.6256345725100187e-03 0.0000000000000000e+00  -7.7772762831589915e-05 1.6605326393354374e-03 0.0000000000000000e+00  -1.2576898814247188e-04 1.5935970813015666e-03 0.0000000000000000e+00  -1.2146727584384258e-04 1.6151499713511388e-03 0.0000000000000000e+00  -1.1038713687707657e-04 1.6675612981915699e-03 0.0000000000000000e+00  -1.0734853974949849e-04 1.6819201576052309e-03 0.0000000000000000e+00  -1.0012147959180519e-04 1.7192431044507244e-03 0.0000000000000000e+00  -9.8278179698127103e-05 1.7304565909251775e-03 0.0000000000000000e+00  -1.1745410874991621e-04 1.6344616682876149e-03 0.0000000000000000e+00  -1.1375583896631116e-04 1.6518349275225891e-03 0.0000000000000000e+00  -1.0463534544722827e-04 1.6951678882684848e-03 0.0000000000000000e+00  -1.0223178060620286e-04 1.7075399713272965e-03 0.0000000000000000e+00  -1.3032768896529065e-04 1.5695006045693312e-03 0.0000000000000000e+00  9.4905111776715734e-01 5.4749140198502057e-02 0.0000000000000000e+00  1.2230323996335195e+00 9.6646137203033930e-02 0.0000000000000000e+00  1.2649950755037296e+00 7.7997207711376540e-02 0.0000000000000000e+00  4.9549898512423285e-01 -1.2611973604364550e-02 0.0000000000000000e+00  8.9497502030514031e-01 -5.1836537991086451e-02 0.0000000000000000e+00  7.2638615718176702e-01 -2.6995268186966879e-02 0.0000000000000000e+00  9.4792624870160802e-01 -4.5106327654535212e-02 0.0000000000000000e+00  9.0994407377868203e-01 -2.6442749790370017e-02 0.0000000000000000e+00  1.2697689277383322e+00 -6.0954939259750193e-02 0.0000000000000000e+00  9.7152126518245852e-01 -3.5574087574626698e-02 0.0000000000000000e+00  1.0748069141581009e+00 -3.6884923421185579e-02 0.0000000000000000e+00  7.8092813758829638e-01 -1.5746156540146789e-02 0.0000000000000000e+00  5.1659389391307053e-01 -5.7725624391246908e-03 0.0000000000000000e+00  3.9657225976791599e-01 -2.2564925890329844e-03 0.0000000000000000e+00  8.8252909612859809e-01 -2.0865771632513699e-02 0.0000000000000000e+00  4.6001166298399765e-01 -3.5039415000659296e-03 0.0000000000000000e+00  5.2083642882333125e-01 9.8437530652855775e-03 0.0000000000000000e+00  6.9501478733012312e-01 -1.5410003760391576e-02 0.0000000000000000e+00  3.6150240413891005e-01 -2.1408939431503305e-03 0.0000000000000000e+00  6.8396566101921585e-01 -1.8925630861747814e-02 0.0000000000000000e+00  3.8692360741906978e-01 -3.3035476999112938e-03 0.0000000000000000e+00  3.9067748606235581e-01 -1.4483776375452635e-02 0.0000000000000000e+00  1.1143242297149478e+00 -5.5784202227236818e-02 0.0000000000000000e+00  1.1622238489231143e+00 -7.3368725460676104e-02 0.0000000000000000e+00  1.0895274232470407e+00 -3.6213876519328593e-02 0.0000000000000000e+00  1.3060213810409345e+00 -5.6424558863240291e-02 0.0000000000000000e+00  3.7735388061895953e-01 -8.2447796897037132e-03 0.0000000000000000e+00  4.1509601608009494e-01 -6.2214782309346775e-03 0.0000000000000000e+00  3.4873927081946671e-01 -3.0442169544435752e-03 0.0000000000000000e+00  3.9755999197360653e-01 1.0814281180679466e-02 0.0000000000000000e+00  4.2894417675763924e-01 8.9871819072452966e-03 0.0000000000000000e+00  8.9778410775749995e-01 -3.3506956424343495e-02 0.0000000000000000e+00  4.1316923452631410e-01 1.7039986733492059e-02 0.0000000000000000e+00  3.2964706596990723e-01 9.3663066327804335e-03 0.0000000000000000e+00  3.8541000575910711e-01 6.5659749042892542e-03 0.0000000000000000e+00  9.1777603429387400e-01 6.5641314085701244e-02 0.0000000000000000e+00  4.2171612489933263e-01 6.1989692476842988e-03 0.0000000000000000e+00  1.0001287067759175e+00 4.8394348858763016e-02 0.0000000000000000e+00  3.0621813097462808e-01 -6.1997745080936157e-03 0.0000000000000000e+00  7.6343932680639937e-01 1.9195819009215652e-02 0.0000000000000000e+00  4.8148341815080098e-01 7.0536961526046762e-03 0.0000000000000000e+00  6.5324367527009564e-01 3.5452365664947742e-02 0.0000000000000000e+00  6.7397924487400895e-01 -3.1957787612070104e-02 0.0000000000000000e+00  8.4733674161713335e-01 -6.0204063804661929e-02 0.0000000000000000e+00  7.4799687655956648e-01 2.3975369660525329e-02 0.0000000000000000e+00  5.8654523650421886e-01 -2.8869668609003866e-02 0.0000000000000000e+00  1.0254492649245648e+00 9.3915098047567633e-02 0.0000000000000000e+00  1.1582714213508152e+00 5.5603247314634521e-02 0.0000000000000000e+00  6.0248192417125845e-01 2.0765510281070817e-02 0.0000000000000000e+00  7.2814678157920709e-01 3.6363471443931025e-02 0.0000000000000000e+00  7.5416661766192683e-01 5.6551195714389019e-02 0.0000000000000000e+00  7.7258750940916854e-01 3.0608426788577586e-02 0.0000000000000000e+00  1.3137816594475302e+00 5.9543313141856069e-02 0.0000000000000000e+00  1.0501664892852964e+00 3.8864024982625339e-02 0.0000000000000000e+00  9.0665753700088003e-01 3.2395240122029413e-02 0.0000000000000000e+00  3.0176958967908069e-01 5.8739801951629153e-03 0.0000000000000000e+00  1.2198069739515007e+00 -4.7130490512877682e-02 0.0000000000000000e+00  </DataArray> 
</PointData> 
</Piece>
</UnstructuredGrid>
</VTKFile>