<?xml version="1.0"?>
<VTKFile type="UnstructuredGrid"  version="0.1"  >
<UnstructuredGrid>
<Piece  NumberOfPoints="103" NumberOfCells="166">
<Points>
<DataArray  type="Float64"  NumberOfComponents="3"  format="ascii">0.4655705597315852 0.21 0  0.4730388619686996 0.21 0  0.4693047108503577 0.2040749161535231 0  0.4618364086130068 0.2056971942287359 0  0.4581022574944306 0.21 0  0.5022733717445609 0.2484520140959261 0  0.5039200503329727 0.2634569969024956 0  0.4870587955368383 0.2511092200731516 0  0.4619845553363554 0.2471559623297018 0  0.4744155700740079 0.2566595549135983 0  0.4718174066442032 0.2448602332187449 0  0.5209814004512184 0.2362962593649592 0  0.5347760817351684 0.2414500964404198 0  0.5183393333239584 0.2464065549333135 0  0.5166834276845828 0.2571581640138182 0  0.4421897352483806 0.3061937447056332 0  0.418091171977014 0.3243162836372635 0  0.412607471649106 0.2990503898016255 0  0.4787056372270673 0.2371901345199761 0  0.4898985359610427 0.2395108277223441 0  0.4302139512950107 0.2879708289588951 0  0.5380469068795991 0.270190988877121 0  0.5593867837568711 0.2625481287604455 0  0.5487739828661812 0.2837987172973246 0  0.4852224147682477 0.2693506158480865 0  0.537795959080102 0.3217164911732622 0  0.5084674509460629 0.3444400826937225 0  0.512571303534115 0.315294881441146 0  0.4679743527986476 0.2938700081288894 0  0.4504932786869968 0.2799586344600427 0  0.4333214399877798 0.2707568063501644 0  0.4117097904773068 0.2792362674983541 0  0.4219952157594144 0.2615029378934271 0  0.3938502830802056 0.3095497484347601 0  0.3641563190507836 0.3179653487982807 0  0.3934922780344484 0.3350540779420794 0  0.4687683012296924 0.2234572950360006 0  0.4652183412607249 0.234253800772318 0  0.4767526104577227 0.2273866629412239 0  0.4707920865830447 0.3486070579413962 0  0.4787676469414335 0.3785383868246253 0  0.3754967205959606 0.2925860795314694 0  0.4626056464247933 0.2175583716511612 0  0.4543958902951323 0.217783002687627 0  0.4618276563023947 0.226295708468006 0  0.544963993717515 0.2555062458890662 0  0.4601355054144107 0.2625386919569297 0  0.4713424846317688 0.2745508899070743 0  0.5084573036363184 0.2395108277223441 0  0.5299710643811397 0.2566376774421922 0  0.541625169083316 0.3526746646055688 0  0.4386378054355863 0.2427664002734886 0  0.4420138570927455 0.2303582032589531 0  0.4274409436629797 0.2358490737568498 0  0.4895894057788134 0.3280526958589806 0  0.4537654266604936 0.2283937178128906 0  0.3871536388992142 0.2768042805511501 0  0.398571556794488 0.2667712515333163 0  0.398267784857306 0.2897726550924405 0  0.5173146390988945 0.3796900489573174 0  0.5292128724209423 0.2936972872082567 0  0.5209430201332119 0.2710369260536757 0  0.507058739830649 0.2805607505285516 0  0.4904006859619667 0.3067892894525832 0  0.4892189727163938 0.2873772533228455 0  0.4192410422903348 0.3546402176185522 0  0.4444416418673275 0.3371826323410143 0  0.4460062899873121 0.3720706817615101 0  0.4676405937283705 0.3189200602945363 0  0.4510553949639345 0.2400598894424664 0  0.4244157537195716 0.2482530512201678 0  0.3717783033973493 0.3492929215517201 0  0.5504647692515866 0.2417078359721865 0  0.4105467584982695 0.2658772111092724 0  0.5869673343225223 0.41 0  0.5770529515268702 0.3629450529032476 0  0.5527077665762991 0.3828459005111343 0  0.448875629425473 0.2527683700708778 0  0.4140433986437475 0.2417572010675891 0  0.3766159229561977 0.3830577447225878 0  0.4149595575946646 0.3834673183778856 0  0.3949496524092438 0.3601144457090416 0  0.5683897549737816 0.3290580395153129 0  0.3436434970543172 0.3743236175823911 0  0.4357040734592776 0.2558482019948566 0  0.3826544750917113 0.2574975795502557 0  0.5561563723763112 0.3041501920577169 0  0.5631143150331265 0.2366473934541688 0  0.556227780909367 0.2515606281824664 0  0.4993542269391089 0.2308107468212473 0  0.4869999746943883 0.2308048359320609 0  0.4091898654769304 0.2539103800220315 0  0.5114371803269665 0.2974349400710795 0  0.4693357546089872 0.2160476853278769 0  0.4767730130872752 0.2184019876485795 0  0.4895008759292634 0.41 0  0.4433053055145528 0.41 0  0.5373680609412221 0.41 0  0.4997232129797319 0.2393335372925151 0  0.3987229542475914 0.41 0  0.3556974926297398 0.41 0  0.4846260107628763 0.2228898464509046 0  0.4460825720969575 0.2652057710885948 0  </DataArray>
</Points>
<Cells>
<DataArray  type="UInt32"  Name="connectivity"  format="ascii">0 1 2  0 2 3  4 0 3  5 6 7  8 9 10  11 12 13  5 14 13  15 16 17  18 19 7  15 20 17  21 22 23  24 6 7  25 26 27  15 28 29  30 31 32  33 34 35  36 37 38  18 7 10  39 26 40  33 34 41  42 43 44  21 22 45  15 20 29  30 31 20  46 9 47  46 8 9  5 48 13  12 49 13  25 26 50  51 52 53  39 26 54  5 14 6  55 43 44  56 57 58  26 59 40  24 9 47  21 60 61  62 24 6  31 57 58  18 37 38  4 0 42  63 28 64  65 66 67  56 41 58  63 28 68  55 37 69  51 70 53  71 34 35  33 16 17  30 20 29  15 28 68  62 60 61  72 12 45  55 52 69  31 32 73  74 75 76  46 8 77  39 66 67  70 53 78  21 60 23  79 80 81  33 16 35  62 24 64  25 50 82  65 16 35  15 16 66  71 83 79  9 7 10  51 77 69  65 16 66  51 70 84  56 85 57  33 41 58  60 23 86  24 9 7  72 87 88  14 61 49  8 77 69  89 19 90  91 70 78  8 37 69  63 27 54  4 42 43  62 60 92  15 68 66  39 68 66  0 42 93  1 94 93  28 64 47  91 70 32  46 29 47  24 64 47  25 60 86  95 96 40  51 52 69  26 50 59  96 67 40  51 77 84  21 61 49  39 68 54  31 57 73  18 19 90  97 95 59  26 27 54  89 19 98  18 38 90  0 1 93  89 48 98  75 50 82  70 32 84  99 100 79  65 35 81  31 20 17  18 37 10  25 60 27  14 49 13  101 38 90  100 83 79  74 97 76  65 80 81  77 84 102  99 79 80  25 82 86  14 6 61  62 64 92  30 32 84  46 29 102  30 84 102  30 29 102  96 99 80  36 37 44  12 45 49  11 48 13  95 59 40  28 29 47  71 79 81  63 68 54  63 64 92  36 42 93  36 94 93  72 45 88  50 59 76  55 37 44  8 37 10  46 77 102  39 67 40  5 19 98  5 48 98  62 6 61  36 42 44  36 94 38  101 94 38  63 27 92  60 27 92  5 19 7  75 50 76  91 57 73  65 67 80  31 17 58  21 45 49  22 45 88  97 59 76  71 35 81  33 17 58  96 67 80  91 32 73  </DataArray>
<DataArray  type="UInt32"  Name="offsets"  format="ascii">3 6 9 12 15 18 21 24 27 30 33 36 39 42 45 48 51 54 57 60 63 66 69 72 75 78 81 84 87 90 93 96 99 102 105 108 111 114 117 120 123 126 129 132 135 138 141 144 147 150 153 156 159 162 165 168 171 174 177 180 183 186 189 192 195 198 201 204 207 210 213 216 219 222 225 228 231 234 237 240 243 246 249 252 255 258 261 264 267 270 273 276 279 282 285 288 291 294 297 300 303 306 309 312 315 318 321 324 327 330 333 336 339 342 345 348 351 354 357 360 363 366 369 372 375 378 381 384 387 390 393 396 399 402 405 408 411 414 417 420 423 426 429 432 435 438 441 444 447 450 453 456 459 462 465 468 471 474 477 480 483 486 489 492 495 498 </DataArray>
<DataArray  type="UInt8"  Name="types"  format="ascii">5 5 5 5 5 5 5 5 5 5 5 5 5 5 5 5 5 5 5 5 5 5 5 5 5 5 5 5 5 5 5 5 5 5 5 5 5 5 5 5 5 5 5 5 5 5 5 5 5 5 5 5 5 5 5 5 5 5 5 5 5 5 5 5 5 5 5 5 5 5 5 5 5 5 5 5 5 5 5 5 5 5 5 5 5 5 5 5 5 5 5 5 5 5 5 5 5 5 5 5 5 5 5 5 5 5 5 5 5 5 5 5 5 5 5 5 5 5 5 5 5 5 5 5 5 5 5 5 5 5 5 5 5 5 5 5 5 5 5 5 5 5 5 5 5 5 5 5 5 5 5 5 5 5 5 5 5 5 5 5 5 5 5 5 5 5 </DataArray>
</Cells>
<PointData  Vectors="f_43-0"> 
<DataArray  type="Float64"  Name="f_43-0"  NumberOfComponents="3" format="ascii">-8.9081332308722982e-06 -2.5667053502441975e-05 0.0000000000000000e+00  -9.8707563957304422e-06 -2.6246421176281608e-05 0.0000000000000000e+00  -9.9279680160989229e-06 -2.3832649210552933e-05 0.0000000000000000e+00  -8.8543942593078778e-06 -2.3800520283606575e-05 0.0000000000000000e+00  -7.9861958579928518e-06 -2.5062062661512242e-05 0.0000000000000000e+00  1.6393311245559480e-02 -1.8385447591632738e-04 0.0000000000000000e+00  1.6364045847308543e-02 -2.3490045708233055e-04 0.0000000000000000e+00  1.6337850826899071e-02 -1.6242612930266663e-04 0.0000000000000000e+00  1.6257467718689321e-02 -1.3066180009742136e-04 0.0000000000000000e+00  1.6299595972250287e-02 -1.6365580181693424e-04 0.0000000000000000e+00  1.6281442983297891e-02 -1.2611739105327047e-04 0.0000000000000000e+00  1.6384851224256650e-02 -1.7465283357334327e-04 0.0000000000000000e+00  1.6548909151671318e-02 -2.7675997946383730e-04 0.0000000000000000e+00  1.6464565953923593e-02 -2.2567495522915089e-04 0.0000000000000000e+00  1.6425607962250056e-02 -2.6269756806205356e-04 0.0000000000000000e+00  1.6267878649318977e-02 -2.2715314668040107e-04 0.0000000000000000e+00  1.6315141085393881e-02 -2.5996541511325228e-04 0.0000000000000000e+00  1.6251719576474359e-02 -2.8535899718449832e-04 0.0000000000000000e+00  1.6212140506995182e-02 -1.0598202000130468e-04 0.0000000000000000e+00  1.6296595474191801e-02 -1.2547347622792463e-04 0.0000000000000000e+00  1.6234700281797774e-02 -2.3729483658820006e-04 0.0000000000000000e+00  1.6405017749467607e-02 -4.2851490849057174e-04 0.0000000000000000e+00  1.6497196275635326e-02 -6.4133023207744240e-04 0.0000000000000000e+00  1.6298862301203674e-02 -5.0583486892651530e-04 0.0000000000000000e+00  1.6310983049634777e-02 -2.0612964570498513e-04 0.0000000000000000e+00  1.6117587395888790e-02 -3.4417659191153267e-04 0.0000000000000000e+00  1.6098753159818287e-02 -1.9444626494683631e-04 0.0000000000000000e+00  1.6200981698494318e-02 -2.7635943396438710e-04 0.0000000000000000e+00  1.6265278497876696e-02 -2.1510467850813017e-04 0.0000000000000000e+00  1.6249946029052956e-02 -2.0467944092605279e-04 0.0000000000000000e+00  1.6210898044077920e-02 -2.0596545859657861e-04 0.0000000000000000e+00  1.6187596594002967e-02 -2.7049392681930800e-04 0.0000000000000000e+00  1.6166392560090250e-02 -2.0213880611422581e-04 0.0000000000000000e+00  1.6302048187251873e-02 -3.5659696824712000e-04 0.0000000000000000e+00  1.6424545169207942e-02 -4.8841763403655524e-04 0.0000000000000000e+00  1.6386358713653345e-02 -3.0020410048697111e-04 0.0000000000000000e+00  1.4472100401640519e-02 -5.2532711085970716e-05 0.0000000000000000e+00  1.6056740008916850e-02 -8.9763764428611083e-05 0.0000000000000000e+00  1.5434721863793468e-02 -7.0888473732250059e-05 0.0000000000000000e+00  1.6242514202572719e-02 -1.3974968415172105e-04 0.0000000000000000e+00  1.5265241997719850e-02 -1.6740300300465334e-05 0.0000000000000000e+00  1.6215347962410306e-02 -4.7290623453604352e-04 0.0000000000000000e+00  1.1198695716519417e-02 -3.5972980033645315e-05 0.0000000000000000e+00  1.1382413159380619e-02 -3.6200769466443035e-05 0.0000000000000000e+00  1.5173863551950852e-02 -6.3402819720912134e-05 0.0000000000000000e+00  1.6550188162355334e-02 -4.4441675242850947e-04 0.0000000000000000e+00  1.6263047168625446e-02 -1.7036884866940429e-04 0.0000000000000000e+00  1.6279332032347681e-02 -1.9811716593401529e-04 0.0000000000000000e+00  1.6376897131482087e-02 -1.5865321240155031e-04 0.0000000000000000e+00  1.6478239333100237e-02 -3.3211000716188029e-04 0.0000000000000000e+00  1.5990397687768467e-02 -2.4901566453885873e-04 0.0000000000000000e+00  1.6160605333447191e-02 -1.2162351594464574e-04 0.0000000000000000e+00  1.5696176856056145e-02 -7.5263194703392150e-05 0.0000000000000000e+00  1.5990400424002009e-02 -1.0314280177627650e-04 0.0000000000000000e+00  1.6215304924001944e-02 -2.0878439743752852e-04 0.0000000000000000e+00  1.5513526138778117e-02 -6.9112645901062221e-05 0.0000000000000000e+00  1.6122007826311565e-02 -3.7238118406866843e-04 0.0000000000000000e+00  1.6107431964071783e-02 -2.8663787361200887e-04 0.0000000000000000e+00  1.6206587200093370e-02 -3.3722692410610797e-04 0.0000000000000000e+00  1.5016507283773866e-02 -5.9346229335912081e-05 0.0000000000000000e+00  1.6257835161078253e-02 -3.6903504284329541e-04 0.0000000000000000e+00  1.6371208497076628e-02 -3.2181896343236468e-04 0.0000000000000000e+00  1.6313714903290606e-02 -2.7724629506765242e-04 0.0000000000000000e+00  1.6247717475846093e-02 -2.3571992169077970e-04 0.0000000000000000e+00  1.6282927928709414e-02 -2.3568646839224695e-04 0.0000000000000000e+00  1.6356337265520170e-02 -2.0169389567575594e-04 0.0000000000000000e+00  1.6291546006348270e-02 -1.8921831803282347e-04 0.0000000000000000e+00  1.5908294074036017e-02 -1.0242350590651608e-04 0.0000000000000000e+00  1.6259541030056415e-02 -2.0542280474642859e-04 0.0000000000000000e+00  1.6170811620359792e-02 -1.0711002258721313e-04 0.0000000000000000e+00  1.6142121820335201e-02 -1.5339976182274126e-04 0.0000000000000000e+00  1.6512286567186021e-02 -3.2278066985841781e-04 0.0000000000000000e+00  1.6694759950105161e-02 -4.1112810936381761e-04 0.0000000000000000e+00  1.6142132000489313e-02 -2.4219502985490973e-04 0.0000000000000000e+00  0.0000000000000000e+00 0.0000000000000000e+00 0.0000000000000000e+00  1.4966400370181026e-02 -1.7941089523303480e-04 0.0000000000000000e+00  1.5230548085034138e-02 -2.2485235838942900e-04 0.0000000000000000e+00  1.6230143659532077e-02 -1.4676339514931876e-04 0.0000000000000000e+00  1.6057889275464129e-02 -1.4274095774483166e-04 0.0000000000000000e+00  1.5777115908428001e-02 -5.6240206652600926e-05 0.0000000000000000e+00  1.5631240012357776e-02 -1.3975622051487044e-04 0.0000000000000000e+00  1.6412951769474556e-02 -2.2133524320681818e-04 0.0000000000000000e+00  1.5949751703117548e-02 -4.1110548344714336e-04 0.0000000000000000e+00  1.5577956545212632e-02 -1.7447556866537759e-04 0.0000000000000000e+00  1.6196407980333411e-02 -1.6472114912904879e-04 0.0000000000000000e+00  1.5995833936930676e-02 -3.2308805732712343e-04 0.0000000000000000e+00  1.6132819537634652e-02 -4.9144730617527708e-04 0.0000000000000000e+00  1.6826900374320372e-02 -5.3332760519022031e-04 0.0000000000000000e+00  1.6650599711617226e-02 -5.6302222568133521e-04 0.0000000000000000e+00  1.5947958938118116e-02 -9.9851041853908350e-05 0.0000000000000000e+00  1.5909545135491348e-02 -8.7474375396013750e-05 0.0000000000000000e+00  1.6102511766914296e-02 -2.0411489613086470e-04 0.0000000000000000e+00  1.6260612088205239e-02 -2.9231672886670233e-04 0.0000000000000000e+00  9.8332570566320391e-03 -2.8479872238698257e-05 0.0000000000000000e+00  1.1884344701888705e-02 -4.0065398766617779e-05 0.0000000000000000e+00  0.0000000000000000e+00 0.0000000000000000e+00 0.0000000000000000e+00  0.0000000000000000e+00 0.0000000000000000e+00 0.0000000000000000e+00  0.0000000000000000e+00 0.0000000000000000e+00 0.0000000000000000e+00  1.6338135927743410e-02 -1.3961325957428383e-04 0.0000000000000000e+00  0.0000000000000000e+00 0.0000000000000000e+00 0.0000000000000000e+00  0.0000000000000000e+00 0.0000000000000000e+00 0.0000000000000000e+00  1.4316470553854564e-02 -5.7402437819893069e-05 0.0000000000000000e+00  1.6232655798708612e-02 -1.7956382039529384e-04 0.0000000000000000e+00  </DataArray> 
</PointData> 
</Piece>
</UnstructuredGrid>
</VTKFile>