<?xml version="1.0"?>
<VTKFile type="UnstructuredGrid"  version="0.1"  >
<UnstructuredGrid>
<Piece  NumberOfPoints="103" NumberOfCells="169">
<Points>
<DataArray  type="Float64"  NumberOfComponents="3"  format="ascii">0.4207607463097617 0.19 0  0.4201487168029707 0.1999966199048527 0  0.4261685417851465 0.196409292431739 0  0.4145905603061963 0.1961819304479011 0  0.4207607463087888 0.21 0  0.4145905603063645 0.2038180695522843 0  0.4262598344738712 0.2036568242185335 0  0.446899804139621 0.1999999999998389 0  0.4394315019025246 0.1970915826863714 0  0.4394608940728603 0.2040870543693135 0  0.3946216884789568 0.2000000000001512 0  0.4020059614928624 0.203547899597858 0  0.4019979587101454 0.1959834479682427 0  0.4618364086138087 0.1999999999998546 0  0.4543681063767183 0.1970915826863795 0  0.4543681063761134 0.2040749161535186 0  0.4693047108508938 0.1970915826863783 0  0.4693047108503577 0.2040749161535231 0  0.3871533862418661 0.2029084173136212 0  0.3871533862424271 0.1959250838464788 0  0.4089549580935208 0.1998691686391595 0  0.4322718174608562 0.200127451265745 0  0.4730388619694271 0.19 0  0.4655705597323621 0.19 0  0.4581022574952563 0.19 0  0.4506339552581777 0.19 0  0.3983558395975142 0.21 0  0.4058241418345938 0.21 0  0.4431656530210671 0.19 0  0.4356973507839815 0.19 0  0.4132924440726327 0.19 0  0.4132924440716992 0.21 0  0.4282290485468779 0.19 0  0.4468998041387391 0.2056971942287257 0  0.4618364086130068 0.2056971942287359 0  0.4319631996644724 0.205697194228716 0  0.4282290485459029 0.21 0  0.4090477820585017 0.1944069323162114 0  0.4767730130879849 0.1943028057711153 0  0.4618364086138088 0.1943028057711072 0  0.3908875373604028 0.21 0  0.3946216884789569 0.2056971942288966 0  0.446899804139621 0.194302805771098 0  0.4322275012857285 0.1945847121082109 0  0.409279320968396 0.2055930218740123 0  0.4506339552573136 0.21 0  0.4581022574944306 0.21 0  0.4356973507830418 0.21 0  0.4431656530201649 0.21 0  0.4058241418354857 0.19 0  0.4805071642065402 0.19 0  0.401463131821351 0.2240614152536154 0  0.4020899907160548 0.2165302463955136 0  0.3946216884789568 0.2158195727016258 0  0.4319631996644723 0.2259854221051505 0  0.4420138570927455 0.2303582032589531 0  0.4274409436629797 0.2358490737568498 0  0.3909674209965625 0.2226356941037057 0  0.4391642236404037 0.2185040792853546 0  0.4166532952113353 0.2316189381631693 0  0.4140433986437475 0.2417572010675891 0  0.4537654266604936 0.2283937178128906 0  0.4470337295051696 0.2214450572771946 0  0.4543958902951323 0.217783002687627 0  0.4091898654769304 0.2539103800220315 0  0.4020607667170538 0.2413000663289324 0  0.3933451459320382 0.2499378971246431 0  0.4468857282753376 0.2152350613820568 0  0.4319982050913569 0.1813492122870563 0  0.4767380076620556 0.1813492122870721 0  0.398571556794488 0.2667712515333163 0  0.3871533862418662 0.2377916209307866 0  0.3951819405974831 0.2310626528016624 0  0.424428444001246 0.2176032464898874 0  0.4319631996644723 0.2156279113565238 0  0.4095582929531458 0.2174316143878764 0  0.4065987454210035 0.2329337197796252 0  0.4170265951911974 0.1826726487248186 0  0.4102372344314323 0.2256491670083618 0  0.4470091562036288 0.18256890171664 0  0.4617258870090093 0.1826555625495994 0  0.4236090047368721 0.2262216159300549 0  0.4244995648184416 0.1837683957183748 0  0.4394315019025247 0.1834818376483804 0  0.3826544750917113 0.2574975795502557 0  0.4693047108508937 0.1834818376483876 0  0.4169851174148118 0.2217509578443784 0  0.4398548996890094 0.1761054820336394 0  0.4688813130644119 0.1761054820336536 0  0.4244948974283196 0.1755365127551117 0  0.4319720988215174 0.1712601408791398 0  0.4543681063767173 0.1676928600783137 0  0.454355826198406 0.1783191038782875 0  0.4476321386943704 0.1742462878721009 0  0.4611006434060722 0.1742578426498367 0  0.4767269250530047 0.1713973971258736 0  0.4170265951902442 0.2149173540338034 0  0.442117717086971 0.1672874945454806 0  0.4666592720111949 0.1673206601298049 0  0.4543663130808365 0.1848930798107721 0  0.3868315570898186 0.2161590584307608 0  0.3862411203249935 0.2293080201888169 0  0.3830052789765099 0.2465504596596307 0  </DataArray>
</Points>
<Cells>
<DataArray  type="UInt32"  Name="connectivity"  format="ascii">0 1 2  0 1 3  4 1 5  4 1 6  7 8 9  10 11 12  13 14 15  13 16 17  10 18 19  7 14 15  20 11 12  21 8 9  22 23 16  24 25 14  26 27 11  28 29 8  0 30 3  31 4 5  32 0 2  7 9 33  13 15 34  13 17 34  7 15 33  21 9 35  4 36 6  20 12 37  22 16 38  23 16 39  40 18 41  25 14 42  24 14 39  26 11 41  10 11 41  13 14 39  13 16 39  10 18 41  7 14 42  28 8 42  7 8 42  29 8 43  21 8 43  27 11 44  20 11 44  45 46 15  47 48 9  21 2 6  1 2 6  46 15 34  45 15 33  48 9 33  47 9 35  1 5 3  20 5 3  49 12 37  21 6 35  30 49 37  27 31 44  48 45 33  36 47 35  50 22 38  23 24 39  40 26 41  25 28 42  29 32 43  36 6 35  32 2 43  21 2 43  30 3 37  31 5 44  20 5 44  20 3 37  51 52 53  54 55 56  51 57 53  47 48 58  59 56 60  61 62 63  64 65 66  48 58 67  29 32 68  50 22 69  62 58 55  64 70 66  71 65 72  61 62 55  54 73 74  51 75 52  54 58 55  71 65 66  51 72 76  51 57 72  27 31 75  4 36 73  65 72 76  0 30 77  51 75 78  25 28 79  23 24 80  54 73 81  32 68 82  29 68 83  84 70 66  22 69 85  59 86 78  59 86 81  62 58 67  59 56 81  54 58 74  87 79 83  54 56 81  88 80 85  89 77 82  45 46 63  64 65 60  26 27 52  47 58 74  32 0 82  28 29 83  22 23 85  87 68 90  89 68 90  27 75 52  91 92 93  91 92 94  59 60 76  88 69 95  0 77 82  87 79 93  28 79 83  36 73 74  31 75 96  88 80 94  23 80 85  4 73 96  87 97 90  91 94 98  87 68 83  88 98 95  25 79 99  24 80 99  40 26 53  88 69 85  89 68 82  36 47 74  26 52 53  45 63 67  59 78 76  40 100 53  65 60 76  31 4 96  86 75 78  86 73 81  86 75 96  86 73 96  62 63 67  24 25 99  87 93 97  48 45 67  92 79 93  92 80 94  88 94 98  92 79 99  92 80 99  57 72 101  57 100 53  51 78 76  71 72 101  71 66 102  84 66 102  </DataArray>
<DataArray  type="UInt32"  Name="offsets"  format="ascii">3 6 9 12 15 18 21 24 27 30 33 36 39 42 45 48 51 54 57 60 63 66 69 72 75 78 81 84 87 90 93 96 99 102 105 108 111 114 117 120 123 126 129 132 135 138 141 144 147 150 153 156 159 162 165 168 171 174 177 180 183 186 189 192 195 198 201 204 207 210 213 216 219 222 225 228 231 234 237 240 243 246 249 252 255 258 261 264 267 270 273 276 279 282 285 288 291 294 297 300 303 306 309 312 315 318 321 324 327 330 333 336 339 342 345 348 351 354 357 360 363 366 369 372 375 378 381 384 387 390 393 396 399 402 405 408 411 414 417 420 423 426 429 432 435 438 441 444 447 450 453 456 459 462 465 468 471 474 477 480 483 486 489 492 495 498 501 504 507 </DataArray>
<DataArray  type="UInt8"  Name="types"  format="ascii">5 5 5 5 5 5 5 5 5 5 5 5 5 5 5 5 5 5 5 5 5 5 5 5 5 5 5 5 5 5 5 5 5 5 5 5 5 5 5 5 5 5 5 5 5 5 5 5 5 5 5 5 5 5 5 5 5 5 5 5 5 5 5 5 5 5 5 5 5 5 5 5 5 5 5 5 5 5 5 5 5 5 5 5 5 5 5 5 5 5 5 5 5 5 5 5 5 5 5 5 5 5 5 5 5 5 5 5 5 5 5 5 5 5 5 5 5 5 5 5 5 5 5 5 5 5 5 5 5 5 5 5 5 5 5 5 5 5 5 5 5 5 5 5 5 5 5 5 5 5 5 5 5 5 5 5 5 5 5 5 5 5 5 5 5 5 5 5 5 </DataArray>
</Cells>
<PointData  Vectors="f_43-0"> 
<DataArray  type="Float64"  Name="f_43-0"  NumberOfComponents="3" format="ascii">-3.2013470742350762e-06 -1.6260966812915137e-05 0.0000000000000000e+00  -1.8771380688265350e-06 -2.0267952042840814e-05 0.0000000000000000e+00  -2.7876354596603560e-06 -1.9613630009690270e-05 0.0000000000000000e+00  -1.9976445679520423e-06 -1.7943897020489637e-05 0.0000000000000000e+00  -5.4701584886106131e-07 -2.4409775318331010e-05 0.0000000000000000e+00  -9.6352591199006551e-07 -2.1092232225328103e-05 0.0000000000000000e+00  -1.8524216825786515e-06 -2.2547176019428951e-05 0.0000000000000000e+00  -4.1056428899312002e-06 -2.3654479506725919e-05 0.0000000000000000e+00  -3.7790157701311906e-06 -2.1603503010061253e-05 0.0000000000000000e+00  -2.9142692016036255e-06 -2.4352632916356203e-05 0.0000000000000000e+00  -2.9702719629936209e-07 -1.6714085070364540e-05 0.0000000000000000e+00  -1.9452129698540003e-07 -1.9267439183398728e-05 0.0000000000000000e+00  -1.2563157509544868e-06 -1.6072391015570804e-05 0.0000000000000000e+00  -5.6074706793556066e-06 -2.5382850834362568e-05 0.0000000000000000e+00  -5.1667698153591535e-06 -2.3423949555547428e-05 0.0000000000000000e+00  -4.3530045846410017e-06 -2.6081967611003708e-05 0.0000000000000000e+00  -6.7405147519872228e-06 -2.5131129688779684e-05 0.0000000000000000e+00  -5.9763929164046592e-06 -2.7706046423813838e-05 0.0000000000000000e+00  4.9160532426212718e-07 -1.6886102931943528e-05 0.0000000000000000e+00  -5.2003144550793096e-07 -1.3856417602344914e-05 0.0000000000000000e+00  -1.1365446149026683e-06 -1.8691216496114463e-05 0.0000000000000000e+00  -2.7975537663544887e-06 -2.1900264519356065e-05 0.0000000000000000e+00  -7.8785159001867891e-06 -2.2932739196557988e-05 0.0000000000000000e+00  -7.0692882352232838e-06 -2.2063113527834393e-05 0.0000000000000000e+00  -6.3080989449846523e-06 -2.1166838860368999e-05 0.0000000000000000e+00  -5.5942891177408813e-06 -2.0243000418323798e-05 0.0000000000000000e+00  9.7425076475257845e-07 -2.1489938798540788e-05 0.0000000000000000e+00  5.1582057620179257e-07 -2.2487759987208395e-05 0.0000000000000000e+00  -4.9274232557763987e-06 -1.9290545977283420e-05 0.0000000000000000e+00  -4.3067165665845560e-06 -1.8309370694331724e-05 0.0000000000000000e+00  -2.7150784979338567e-06 -1.5195378693720101e-05 0.0000000000000000e+00  8.4619526008568960e-09 -2.3461685626240238e-05 0.0000000000000000e+00  -3.7316677451483866e-06 -1.7299160233311061e-05 0.0000000000000000e+00  -3.4084794344792375e-06 -2.5852489220308079e-05 0.0000000000000000e+00  -4.9521229760805290e-06 -2.7513383373234233e-05 0.0000000000000000e+00  -2.0485545025037319e-06 -2.4075746143847800e-05 0.0000000000000000e+00  -1.1499312010578610e-06 -2.5330078140927068e-05 0.0000000000000000e+00  -1.8808877917468011e-06 -1.6423927472352891e-05 0.0000000000000000e+00  -7.8804719663767428e-06 -2.4929335413216361e-05 0.0000000000000000e+00  -6.2321086383428360e-06 -2.3242052118275904e-05 0.0000000000000000e+00  1.3833289848090641e-06 -2.0470806458910291e-05 0.0000000000000000e+00  5.3447127291719248e-07 -1.9148698830983546e-05 0.0000000000000000e+00  -4.7721765881498698e-06 -2.1445707800908808e-05 0.0000000000000000e+00  -3.4842917831765672e-06 -1.9681701165285331e-05 0.0000000000000000e+00  -3.5385016869519465e-07 -2.1115660943158507e-05 0.0000000000000000e+00  -3.2388069402521642e-06 -2.7918692999423728e-05 0.0000000000000000e+00  -4.0266253715394655e-06 -2.8723682642884527e-05 0.0000000000000000e+00  -1.7999228819759632e-06 -2.6222131981366534e-05 0.0000000000000000e+00  -2.4963446256872132e-06 -2.7084820732082736e-05 0.0000000000000000e+00  -2.2719392288458935e-06 -1.4104234572451152e-05 0.0000000000000000e+00  -8.7361914797684838e-06 -2.3777329700729679e-05 0.0000000000000000e+00  1.6722124135932114e-02 -8.0267842516752079e-05 0.0000000000000000e+00  1.1605590043627649e-02 -3.5177801031131541e-05 0.0000000000000000e+00  1.0772171173897682e-02 -3.5557202589199944e-05 0.0000000000000000e+00  1.7477025336721408e-02 -6.4632789591981453e-05 0.0000000000000000e+00  1.8358568212899471e-02 -8.7202492723721588e-05 0.0000000000000000e+00  1.8756837275369774e-02 -1.1957831321134825e-04 0.0000000000000000e+00  1.6084429741640344e-02 -7.9152624072438357e-05 0.0000000000000000e+00  1.3677886487440748e-02 -5.0047969409614848e-05 0.0000000000000000e+00  1.8395961402455738e-02 -1.0790554751145964e-04 0.0000000000000000e+00  1.8863283655840325e-02 -1.6600789075035192e-04 0.0000000000000000e+00  1.8115644454356192e-02 -7.9786710134752378e-05 0.0000000000000000e+00  1.5746466889167747e-02 -4.7827086023774978e-05 0.0000000000000000e+00  1.3093518582081914e-02 -4.1587697997755948e-05 0.0000000000000000e+00  1.8929791134538021e-02 -2.3844829283573753e-04 0.0000000000000000e+00  1.8787631416974461e-02 -1.9011649767383527e-04 0.0000000000000000e+00  1.8824272408351012e-02 -2.7256776614048410e-04 0.0000000000000000e+00  1.0172192834145373e-02 -3.7600965544000099e-05 0.0000000000000000e+00  1.3756410403902221e-02 -2.0430296639091269e-08 0.0000000000000000e+00  1.3896735376984491e-02 -7.0603894747327859e-06 0.0000000000000000e+00  1.8936412102215191e-02 -3.3582647037730336e-04 0.0000000000000000e+00  1.8594513455116628e-02 -2.0768929020365345e-04 0.0000000000000000e+00  1.8206922281368096e-02 -1.3482048643459601e-04 0.0000000000000000e+00  1.2802216486607523e-02 -3.9948542519501780e-05 0.0000000000000000e+00  1.0678885942483649e-02 -2.6495735532676124e-05 0.0000000000000000e+00  1.2588031787477090e-02 -4.2586582398482544e-05 0.0000000000000000e+00  1.8463011331343454e-02 -1.2885405469605920e-04 0.0000000000000000e+00  1.2504135642641863e-02 -1.0404199616562948e-06 0.0000000000000000e+00  1.7289003726126961e-02 -7.6659370863763553e-05 0.0000000000000000e+00  1.2703016455667602e-02 -6.0013922730091684e-06 0.0000000000000000e+00  1.2659508294328001e-02 -1.1921195261167071e-05 0.0000000000000000e+00  1.7522587005007369e-02 -8.4095945838937744e-05 0.0000000000000000e+00  1.1364491203890707e-02 -1.4824219158471638e-05 0.0000000000000000e+00  1.1732112425840876e-02 -1.8492122017314368e-06 0.0000000000000000e+00  1.8804001610799700e-02 -3.7806009092081417e-04 0.0000000000000000e+00  1.1809708981285857e-02 -2.0514718839957933e-05 0.0000000000000000e+00  1.5806125369275326e-02 -5.5865303912053660e-05 0.0000000000000000e+00  1.6843998586950484e-02 2.0523019284306299e-05 0.0000000000000000e+00  1.6953842145084934e-02 7.9381407201398313e-06 0.0000000000000000e+00  1.6981437155019395e-02 2.1195513114473389e-05 0.0000000000000000e+00  1.8067665086253824e-02 4.0871719416479794e-05 0.0000000000000000e+00  1.8622012512790685e-02 4.5771395096005276e-05 0.0000000000000000e+00  1.5911477926532989e-02 4.6708010675430879e-06 0.0000000000000000e+00  1.7475828789927358e-02 1.7400034275888303e-05 0.0000000000000000e+00  1.7523967389225702e-02 2.2540352756316543e-05 0.0000000000000000e+00  1.8227349974192331e-02 3.2781044061940183e-05 0.0000000000000000e+00  9.6620703494084657e-03 -3.0844729817189407e-05 0.0000000000000000e+00  1.8610243949111770e-02 5.2904898633261628e-05 0.0000000000000000e+00  1.8705790345348913e-02 4.5591389683631735e-05 0.0000000000000000e+00  1.0005897282900968e-02 -1.4189440082678538e-05 0.0000000000000000e+00  1.1122381380362928e-02 -3.7851098807677590e-05 0.0000000000000000e+00  1.7905096486891443e-02 -1.4349237819092815e-04 0.0000000000000000e+00  1.8721531920724808e-02 -2.9492574497798520e-04 0.0000000000000000e+00  </DataArray> 
</PointData> 
</Piece>
</UnstructuredGrid>
</VTKFile>