<?xml version="1.0"?>
<VTKFile type="UnstructuredGrid"  version="0.1"  >
<UnstructuredGrid>
<Piece  NumberOfPoints="189" NumberOfCells="338">
<Points>
<DataArray  type="Float64"  NumberOfComponents="3"  format="ascii">0.5626584888143201 0.21 0  0.5633122436674589 0.1999814296467508 0  0.5571672426447437 0.2036011176410121 0  0.5626584888145268 0.19 0  0.5688286748170428 0.1961819304477386 0  0.5688286748170693 0.203818069552238 0  0.5571594006495384 0.1963685282145804 0  0.6 0.21 0  0.5925316977628483 0.21 0  0.5955705746706843 0.2069223055301326 0  0.6 0.19 0  0.5925316977628897 0.19 0  0.5965740209510578 0.1927759733278094 0  0.5887803774232762 0.2001272386983733 0  0.5815926498168407 0.1966545283159175 0  0.5814408164431408 0.2041285596160068 0  0.5850633955257988 0.19 0  0.5775950932887378 0.19 0  0.5893814947531364 0.2056233639521408 0  0.6 0.2 0  0.6 0.1950000000000217 0  0.594380730180568 0.1966558399668133 0  0.5745072403740523 0.2002044435018727 0  0.5511891430099709 0.2001122610077113 0  0.5439877332217911 0.197091582686394 0  0.5439623148931173 0.2040856076781014 0  0.5946539510196798 0.2024302972968126 0  0.5701267910514778 0.21 0  0.5701267910515998 0.19 0  0.574400031298126 0.1945411130107761 0  0.5887471324735476 0.1946190227059995 0  0.5551901865771842 0.21 0  0.6 0.2050000000000054 0  0.5514560354586301 0.2056971942287897 0  0.5551901865773963 0.19 0  0.5743797868482748 0.2056178169806182 0  0.547721884340339 0.19 0  0.5511851248594936 0.1945772515115504 0  0.5402535821029386 0.21 0  0.54772188434007 0.21 0  0.5775950932886138 0.21 0  0.5850633955257281 0.21 0  0.6300528284996487 0.2292604486710743 0  0.65429728832161 0.2353880751391984 0  0.6456429596876728 0.2209784072651823 0  0.5805147821309363 0.1750906865638377 0  0.5830971905392573 0.1610562557540074 0  0.5891905322413319 0.173297484523883 0  0.6385847074107548 0.1562173919888177 0  0.6331542554485198 0.1311064488920115 0  0.6641520523959832 0.1503720468916702 0  0.5740383564454857 0.232486177523615 0  0.5800331369475803 0.2220172718503647 0  0.5872716114964233 0.2289047791562547 0  0.589683001657349 0.3059206033515077 0  0.629251049118315 0.3129131677620721 0  0.6129037791821019 0.2898142990521698 0  0.5669464924360815 0.2475839849813879 0  0.5841951273902199 0.2421589553533847 0  0.5857082964501902 0.1444062384003248 0  0.5690392421172527 0.1384821647678796 0  0.5733051421814971 0.1505504706653721 0  0.596265848881445 0.1672046255295837 0  0.5678918321244223 0.2848057098346606 0  0.5916500441695769 0.2809526698769227 0  0.5813292444071699 0.2563523755659055 0  0.5593867837568711 0.2625481287604455 0  0.6158241656144056 0.2465955912391796 0  0.6368758304361363 0.2529361994816268 0  0.5380469068795991 0.270190988877121 0  0.5487739828661812 0.2837987172973246 0  0.537795959080102 0.3217164911732622 0  0.5084674509460629 0.3444400826937225 0  0.512571303534115 0.315294881441146 0  0.5813292444072671 0.1834697536045245 0  0.5742993681899213 0.1835891178222343 0  0.6156282497854896 0.2673949998438289 0  0.5926483197196849 0.2655989755524508 0  0.604876951083344 0.1323679928240978 0  0.5975491358239944 0.1534040596821995 0  0.6034720826395079 0.3406552446218118 0  0.5561563723763112 0.3041501920577169 0  0.7014764931779993 0.1925000000000107 0  0.685561679424891 0.2295161340218305 0  0.6773925486195326 0.2026632733038183 0  0.6065875229028267 0.1922148945199381 0  0.5688911489504639 0.2221570651130901 0  0.5600714413167317 0.2168050759646857 0  0.5668496426355557 0.2152032773847839 0  0.6622141672544596 0.2596384679938497 0  0.5666635607831564 0.161267807310367 0  0.5731424580414761 0.1690378585407531 0  0.5588244563271773 0.225349035787779 0  0.5519051872593019 0.2166420053265535 0  0.544963993717515 0.2555062458890662 0  0.59743928374328 0.184845006919697 0  0.6044284617508302 0.1869248475987405 0  0.5683897549737816 0.3290580395153129 0  0.5701061294197327 0.1769562172296277 0  0.6341981541449615 0.3582841585921612 0  0.546982877175164 0.2233942294772845 0  0.5365194309843644 0.2180863504285254 0  0.5444469726554123 0.2157339702670886 0  0.6186516859309905 0.2076004596739355 0  0.6330574554272607 0.20858417289079 0  0.6200567937109939 0.1981193972299755 0  0.7467958595662458 0.41 0  0.6916151138480078 0.41 0  0.7140255670996881 0.3646166311524474 0  0.6659720908852078 0.2972353895876497 0  0.6940661166801609 0.2673943882596362 0  0.6153880197825543 0.1501582873444675 0  0.5989004035231642 0.2514987524731583 0  0.596265848881424 0.2354323641502947 0  0.6295540558938247 0.1924839069479658 0  0.6341710204839701 0.1765827244303529 0  0.6426099985752125 0.1947200777786613 0  0.541625169083316 0.3526746646055688 0  0.615208009837415 0.2301771304243292 0  0.7666101362390253 0.3578469139891653 0  0.605300577487017 0.1810288040931519 0  0.5966020906539898 0.1778579871513863 0  0.6210712537558437 0.2177951339896733 0  0.6711932754123612 0.1788117674793375 0  0.6570334029219593 0.3356135508988682 0  0.6580228992389956 0.1177787934340178 0  0.5631143150331265 0.2366473934541688 0  0.5595716197895517 0.176498756977387 0  0.566392639933061 0.1840461062417861 0  0.5817033662356486 0.1258684224449203 0  0.5768392741880191 0.2703425200264898 0  0.6100254542261326 0.2029134597827689 0  0.6109529519469615 0.19670324045761 0  0.6083886978654316 0.1626240187349565 0  0.8039733463934788 0.41 0  0.5740261188292279 0.2158012409855351 0  0.6035153318756115 0.216380925869335 0  0.6045977536612152 0.2079044120944432 0  0.5888145049962641 0.182376060046032 0  0.559009501696121 0.184247465949259 0  0.553378981997341 0.2322691570724318 0  0.5869673343225223 0.41 0  0.5770529515268702 0.3629450529032476 0  0.5527077665762991 0.3828459005111343 0  0.6993284284288891 0.3008982894693075 0  0.6641604129055072 0.2170430078016702 0  0.5962264926010817 0.2155692304460942 0  0.5886496198982827 0.2178532325665078 0  0.5292128724209423 0.2936972872082567 0  0.6084037118460524 0.3780069571238127 0  0.6930564374308674 0.1341308449452096 0  0.5963374227678123 0.2233833965505087 0  0.6048429996566183 0.2280441552220857 0  0.6154136810599321 0.175174545882801 0  0.6039303205755 0.1726140165641641 0  0.6689331958774321 0.3716842215281515 0  0.7236859362722395 0.2517828338101294 0  0.6915000583673684 0.1646401469634124 0  0.6229518475759098 0.1637562961874416 0  0.6209583882721262 0.1847010880111589 0  0.6140419833156984 0.1920012542761988 0  0.6389246510848009 0.278450010052455 0  0.5504647692515866 0.2417078359721865 0  0.556227780909367 0.2515606281824664 0  0.5514474833664602 0.1826065372792922 0  0.6902890633484133 0.332151151267615 0  0.6047562880647869 0.1975000000000114 0  0.6104992711520371 0.2118453231978703 0  0.6513011150928492 0.1835167781725089 0  0.5455709551586724 0.2324144452751203 0  0.6503345442188976 0.208122535960376 0  0.6603908909116775 0.196660215430242 0  0.7279457694224267 0.3237962213587685 0  0.6107068242365286 0.2205343762889329 0  0.6065667631161428 0.2400998453881159 0  0.5653857196022115 0.1707921017691255 0  0.6383613676644679 0.41 0  0.5173146390988945 0.3796900489573174 0  0.5662965898088369 0.2290837557773043 0  0.7294932489647475 0.2840789881590486 0  0.7613343746328384 0.3026779105476945 0  0.5811564300792245 0.2152441767609544 0  0.5373680609412221 0.41 0  0.7206274800156242 0.161583396443773 0  0.6043492189278221 0.2025000000000026 0  0.5562468381785084 0.1675066640297715 0  0.6537520553764576 0.1680442900620985 0  0.6112872589661165 0.1855979267337469 0  0.560873207311089 0.1493935172983297 0  </DataArray>
</Points>
<Cells>
<DataArray  type="UInt32"  Name="connectivity"  format="ascii">0 1 2  3 1 4  0 1 5  3 1 6  7 8 9  10 11 12  13 14 15  16 17 14  13 15 18  19 20 21  22 14 15  23 24 25  19 26 21  0 27 5  28 3 4  17 14 29  16 14 30  31 0 2  19 32 26  26 9 18  22 14 29  13 14 30  23 25 33  3 34 6  22 15 35  36 24 37  23 24 37  38 39 25  23 2 6  8 9 18  40 41 15  1 2 6  39 25 33  22 4 5  1 4 5  41 15 18  11 21 12  32 26 9  40 15 35  23 6 37  11 16 30  17 28 29  27 40 35  41 8 18  39 31 33  34 36 37  20 21 12  13 26 18  34 6 37  23 2 33  31 2 33  13 26 21  10 20 12  7 32 9  11 21 30  27 5 35  28 4 29  13 21 30  22 4 29  22 5 35  42 43 44  45 46 47  48 49 50  51 52 53  54 55 56  51 57 58  59 60 61  62 46 47  54 63 64  65 66 57  42 67 68  69 66 70  71 72 73  45 74 75  76 64 77  59 78 79  54 55 80  54 63 81  51 58 53  82 83 84  10 20 85  86 87 88  89 83 43  90 46 91  92 87 93  69 66 94  10 95 96  42 43 68  54 80 97  45 98 75  55 80 99  100 101 102  103 104 105  92 100 93  51 52 86  106 107 108  89 109 110  111 78 79  76 112 77  113 112 58  114 115 116  71 72 117  42 67 118  106 108 119  120 95 96  92 86 87  121 120 95  63 66 70  42 104 122  82 123 84  45 46 91  124 55 99  125 49 50  51 57 126  103 104 122  127 98 128  59 60 129  114 104 105  65 66 130  131 105 132  111 133 79  134 106 119  65 57 58  52 86 135  76 64 56  7 136 137  45 138 74  127 139 128  92 100 140  141 142 143  144 109 110  54 97 81  76 67 112  83 43 145  90 46 61  7 8 146  111 49 78  41 8 147  69 148 70  141 142 149  48 111 49  150 125 50  151 136 152  63 64 130  71 117 97  113 58 53  11 16 138  142 80 97  89 83 110  153 154 133  151 147 53  65 112 58  124 55 109  107 108 155  156 83 110  31 0 87  113 151 53  82 123 157  10 11 95  48 111 158  59 78 129  114 115 159  160 159 105  148 70 81  52 147 53  55 56 161  76 56 161  162 126 163  34 36 164  124 155 165  42 104 44  153 115 159  54 64 56  108 155 165  62 121 47  45 138 47  20 85 166  103 167 122  168 115 116  100 169 140  113 151 152  8 147 146  170 145 171  103 131 105  55 109 161  170 44 145  108 119 172  173 167 122  123 50 157  113 112 174  71 148 81  57 126 163  11 138 95  63 66 130  45 98 91  127 98 175  176 149 99  72 117 177  92 86 178  144 110 179  38 101 102  127 164 139  62 46 79  16 17 74  153 133 158  7 146 136  142 80 149  180 119 172  19 20 166  10 85 96  3 34 139  59 46 61  62 121 154  16 138 74  176 155 99  41 147 181  176 141 149  142 117 97  124 109 165  76 67 68  121 120 154  103 131 167  156 110 179  71 148 73  52 135 181  141 182 143  114 104 116  31 87 93  173 136 152  39 31 93  107 176 155  0 87 88  71 97 81  160 105 132  153 115 158  34 164 139  82 183 157  151 146 136  38 39 102  151 147 146  28 3 128  89 109 161  170 116 171  121 138 95  27 40 135  144 109 165  19 32 184  17 28 75  170 104 44  150 50 157  51 86 178  62 154 133  131 167 137  84 145 171  0 27 88  153 120 154  114 159 105  83 84 145  150 183 157  62 133 79  40 41 181  89 43 68  43 44 145  168 116 171  65 130 77  162 94 163  17 74 75  66 57 163  121 138 47  117 177 143  3 139 128  127 185 175  123 84 171  7 32 137  168 115 186  39 93 102  90 185 175  170 104 116  167 136 137  28 128 75  92 126 178  64 130 77  92 126 140  27 135 88  48 50 186  63 70 81  52 147 181  40 135 181  65 112 77  19 166 184  48 115 186  67 112 174  142 117 143  162 126 140  59 46 79  153 120 187  131 184 137  67 118 174  124 155 99  123 50 186  123 168 171  48 115 158  51 126 178  85 96 187  76 68 161  80 149 99  66 94 163  131 166 184  173 118 122  160 159 187  152 118 174  160 85 187  182 177 143  32 184 137  144 172 165  123 168 186  100 93 102  153 159 187  90 61 188  173 152 118  86 135 88  98 128 75  113 152 174  144 172 179  111 133 158  89 68 161  131 166 132  108 172 165  98 91 175  60 61 188  173 167 136  162 169 140  160 85 132  90 91 175  85 166 132  180 172 179  42 118 122  120 96 187  </DataArray>
<DataArray  type="UInt32"  Name="offsets"  format="ascii">3 6 9 12 15 18 21 24 27 30 33 36 39 42 45 48 51 54 57 60 63 66 69 72 75 78 81 84 87 90 93 96 99 102 105 108 111 114 117 120 123 126 129 132 135 138 141 144 147 150 153 156 159 162 165 168 171 174 177 180 183 186 189 192 195 198 201 204 207 210 213 216 219 222 225 228 231 234 237 240 243 246 249 252 255 258 261 264 267 270 273 276 279 282 285 288 291 294 297 300 303 306 309 312 315 318 321 324 327 330 333 336 339 342 345 348 351 354 357 360 363 366 369 372 375 378 381 384 387 390 393 396 399 402 405 408 411 414 417 420 423 426 429 432 435 438 441 444 447 450 453 456 459 462 465 468 471 474 477 480 483 486 489 492 495 498 501 504 507 510 513 516 519 522 525 528 531 534 537 540 543 546 549 552 555 558 561 564 567 570 573 576 579 582 585 588 591 594 597 600 603 606 609 612 615 618 621 624 627 630 633 636 639 642 645 648 651 654 657 660 663 666 669 672 675 678 681 684 687 690 693 696 699 702 705 708 711 714 717 720 723 726 729 732 735 738 741 744 747 750 753 756 759 762 765 768 771 774 777 780 783 786 789 792 795 798 801 804 807 810 813 816 819 822 825 828 831 834 837 840 843 846 849 852 855 858 861 864 867 870 873 876 879 882 885 888 891 894 897 900 903 906 909 912 915 918 921 924 927 930 933 936 939 942 945 948 951 954 957 960 963 966 969 972 975 978 981 984 987 990 993 996 999 1002 1005 1008 1011 1014 </DataArray>
<DataArray  type="UInt8"  Name="types"  format="ascii">5 5 5 5 5 5 5 5 5 5 5 5 5 5 5 5 5 5 5 5 5 5 5 5 5 5 5 5 5 5 5 5 5 5 5 5 5 5 5 5 5 5 5 5 5 5 5 5 5 5 5 5 5 5 5 5 5 5 5 5 5 5 5 5 5 5 5 5 5 5 5 5 5 5 5 5 5 5 5 5 5 5 5 5 5 5 5 5 5 5 5 5 5 5 5 5 5 5 5 5 5 5 5 5 5 5 5 5 5 5 5 5 5 5 5 5 5 5 5 5 5 5 5 5 5 5 5 5 5 5 5 5 5 5 5 5 5 5 5 5 5 5 5 5 5 5 5 5 5 5 5 5 5 5 5 5 5 5 5 5 5 5 5 5 5 5 5 5 5 5 5 5 5 5 5 5 5 5 5 5 5 5 5 5 5 5 5 5 5 5 5 5 5 5 5 5 5 5 5 5 5 5 5 5 5 5 5 5 5 5 5 5 5 5 5 5 5 5 5 5 5 5 5 5 5 5 5 5 5 5 5 5 5 5 5 5 5 5 5 5 5 5 5 5 5 5 5 5 5 5 5 5 5 5 5 5 5 5 5 5 5 5 5 5 5 5 5 5 5 5 5 5 5 5 5 5 5 5 5 5 5 5 5 5 5 5 5 5 5 5 5 5 5 5 5 5 5 5 5 5 5 5 5 5 5 5 5 5 5 5 5 5 5 5 5 5 5 5 5 5 5 5 5 5 5 5 5 5 5 5 5 5 5 5 5 5 5 5 </DataArray>
</Cells>
<PointData  Vectors="f_43-1"> 
<DataArray  type="Float64"  Name="f_43-1"  NumberOfComponents="3" format="ascii">6.7390623853131769e-05 -2.9683956968660244e-04 0.0000000000000000e+00  5.2378846536120749e-05 -2.9319063857322265e-04 0.0000000000000000e+00  5.8749611211455393e-05 -2.8591839939739783e-04 0.0000000000000000e+00  3.8162418825861489e-05 -2.8766501737941203e-04 0.0000000000000000e+00  4.5818660186594310e-05 -2.9957838256020877e-04 0.0000000000000000e+00  5.6988698799888252e-05 -3.0296297801620729e-04 0.0000000000000000e+00  4.8194141869849066e-05 -2.8249368058983371e-04 0.0000000000000000e+00  5.9561624485360770e-05 -3.5143241821309235e-04 0.0000000000000000e+00  6.0979617727677007e-05 -3.3979508413861350e-04 0.0000000000000000e+00  5.5348419319338616e-05 -3.4302263924704436e-04 0.0000000000000000e+00  3.0170229673665585e-05 -3.4255316292403185e-04 0.0000000000000000e+00  3.1645176993120158e-05 -3.3224143118291879e-04 0.0000000000000000e+00  3.4351497301708457e-05 -3.3923529399644027e-04 0.0000000000000000e+00  4.6922228708526119e-05 -3.3055715238246872e-04 0.0000000000000000e+00  4.3725860883314531e-05 -3.1861303170006090e-04 0.0000000000000000e+00  5.4734112611574059e-05 -3.2142079954738749e-04 0.0000000000000000e+00  3.3397041990271725e-05 -3.2109320236465465e-04 0.0000000000000000e+00  3.5138240341836346e-05 -3.0991423024234765e-04 0.0000000000000000e+00  5.5001654592536795e-05 -3.3349525252424951e-04 0.0000000000000000e+00  4.3492154517818126e-05 -3.4697767887279955e-04 0.0000000000000000e+00  3.6421337576964235e-05 -3.4480496549324903e-04 0.0000000000000000e+00  4.0282975272742202e-05 -3.3751452812753023e-04 0.0000000000000000e+00  5.0499478698555098e-05 -3.0967154587399328e-04 0.0000000000000000e+00  5.4547622145602422e-05 -2.7554405011280861e-04 0.0000000000000000e+00  5.1152276582922507e-05 -2.6352718719326192e-04 0.0000000000000000e+00  6.1353543109595485e-05 -2.6700947735315642e-04 0.0000000000000000e+00  4.8636935631634276e-05 -3.4002113546161510e-04 0.0000000000000000e+00  6.5997656314716060e-05 -3.0757850076567781e-04 0.0000000000000000e+00  3.6732502277647019e-05 -2.9877641055732940e-04 0.0000000000000000e+00  4.2310425554952354e-05 -3.0709001218305078e-04 0.0000000000000000e+00  3.9015379029272762e-05 -3.2843276624809316e-04 0.0000000000000000e+00  6.8620419643258555e-05 -2.8610803538162366e-04 0.0000000000000000e+00  5.1082172926081037e-05 -3.4917021827424372e-04 0.0000000000000000e+00  6.2731819663143666e-05 -2.7864878061028528e-04 0.0000000000000000e+00  3.9433986905207357e-05 -2.7657311572839140e-04 0.0000000000000000e+00  5.8536456595614775e-05 -3.1180694613711432e-04 0.0000000000000000e+00  4.0551651795348114e-05 -2.6550027858529611e-04 0.0000000000000000e+00  4.6552015657669406e-05 -2.7285057637259802e-04 0.0000000000000000e+00  7.0601251968552736e-05 -2.6468219978373987e-04 0.0000000000000000e+00  6.9689883251189259e-05 -2.7538774211680050e-04 0.0000000000000000e+00  6.4436577378739984e-05 -3.1831552440398915e-04 0.0000000000000000e+00  6.2723414640364431e-05 -3.2903402642845515e-04 0.0000000000000000e+00  3.2326473555623285e-05 -1.9337108649016398e-04 0.0000000000000000e+00  2.4900148726390553e-05 -1.4976202446476797e-04 0.0000000000000000e+00  2.7518867634337961e-05 -1.7267670186868399e-04 0.0000000000000000e+00  3.1713100825659290e-05 -2.6229388193683203e-04 0.0000000000000000e+00  2.8666231501712463e-05 -2.2222127698293495e-04 0.0000000000000000e+00  3.0244333295111240e-05 -2.5751281137715790e-04 0.0000000000000000e+00  2.1622979458362063e-05 -1.5939244302250191e-04 0.0000000000000000e+00  1.8459874778716150e-05 -1.3397992134514219e-04 0.0000000000000000e+00  1.7697181898364613e-05 -1.2520778385677613e-04 0.0000000000000000e+00  5.3027516283614295e-05 -2.4547343662074673e-04 0.0000000000000000e+00  5.6819539790275669e-05 -2.7923661640129061e-04 0.0000000000000000e+00  5.0987727139166036e-05 -2.5772608094041730e-04 0.0000000000000000e+00  2.4991254115808991e-05 -1.0998142248794605e-04 0.0000000000000000e+00  1.8655608001889442e-05 -9.1063576669397867e-05 0.0000000000000000e+00  2.5739823950777909e-05 -1.2445992285625961e-04 0.0000000000000000e+00  4.7777233198920386e-05 -2.0732185651951214e-04 0.0000000000000000e+00  4.6101023122949259e-05 -2.2120826547388021e-04 0.0000000000000000e+00  2.5126652752071728e-05 -1.8370930968442508e-04 0.0000000000000000e+00  2.5353564668960125e-05 -1.7208949028951938e-04 0.0000000000000000e+00  2.7525979281493171e-05 -1.9681250861704080e-04 0.0000000000000000e+00  2.8408552033236993e-05 -2.3454031146183786e-04 0.0000000000000000e+00  3.3899336141299943e-05 -1.4098740899730724e-04 0.0000000000000000e+00  3.1549405894746679e-05 -1.4454667305662569e-04 0.0000000000000000e+00  4.1391482920203871e-05 -1.9003008263472477e-04 0.0000000000000000e+00  4.2981890901083694e-05 -1.7624614502641291e-04 0.0000000000000000e+00  3.4769961513204219e-05 -1.8777404451526141e-04 0.0000000000000000e+00  2.7701755700660514e-05 -1.5450160200779914e-04 0.0000000000000000e+00  4.2421202896895465e-05 -1.5589099654243161e-04 0.0000000000000000e+00  3.6371241370529379e-05 -1.3954993159944748e-04 0.0000000000000000e+00  2.4638492288049074e-05 -8.8862884599011220e-05 0.0000000000000000e+00  1.8516682302732407e-05 -5.9522194040628587e-05 0.0000000000000000e+00  2.7566274861081412e-05 -8.9876206845211157e-05 0.0000000000000000e+00  3.3123409569428992e-05 -2.9135452044974018e-04 0.0000000000000000e+00  3.4435202379072788e-05 -2.8461807090795533e-04 0.0000000000000000e+00  3.0265756629059752e-05 -1.5417544987016257e-04 0.0000000000000000e+00  3.5870080517528816e-05 -1.6959715255660969e-04 0.0000000000000000e+00  2.1207427918282889e-05 -1.5436221144720863e-04 0.0000000000000000e+00  2.5714058453312264e-05 -1.9856577606982304e-04 0.0000000000000000e+00  1.5234902680081545e-05 -6.7687360579992233e-05 0.0000000000000000e+00  2.8926072931825296e-05 -1.1294556513521060e-04 0.0000000000000000e+00  1.5968744728415248e-05 -1.0456180027615125e-04 0.0000000000000000e+00  1.8821950384735020e-05 -1.1634458906049836e-04 0.0000000000000000e+00  1.9968564458165714e-05 -1.3044513522217878e-04 0.0000000000000000e+00  3.4423559679521694e-05 -2.9809384159899409e-04 0.0000000000000000e+00  5.9447092682741861e-05 -2.7076595291783363e-04 0.0000000000000000e+00  6.4036057914617256e-05 -2.7582179982354365e-04 0.0000000000000000e+00  6.3668230967559098e-05 -2.8817181038776849e-04 0.0000000000000000e+00  2.1472851452112138e-05 -1.2251968007342501e-04 0.0000000000000000e+00  3.0537787514226271e-05 -2.1867842559780768e-04 0.0000000000000000e+00  3.1484023743756526e-05 -2.4118241721591941e-04 0.0000000000000000e+00  5.9716915377303927e-05 -2.5349028396812775e-04 0.0000000000000000e+00  6.5434429809012109e-05 -2.6628263315836304e-04 0.0000000000000000e+00  4.7704431760943387e-05 -1.8281192720293450e-04 0.0000000000000000e+00  3.0917890964591441e-05 -3.0251153544605576e-04 0.0000000000000000e+00  3.1780530386151845e-05 -2.9272198822314282e-04 0.0000000000000000e+00  2.0680636290515040e-05 -8.3106941203457186e-05 0.0000000000000000e+00  3.3651560498908408e-05 -2.6089551830116374e-04 0.0000000000000000e+00  9.6302323057675968e-06 -4.5674761305616974e-05 0.0000000000000000e+00  6.2535986591235571e-05 -2.4586155195843165e-04 0.0000000000000000e+00  6.6565571128977767e-05 -2.4407927752063843e-04 0.0000000000000000e+00  6.6940130746244648e-05 -2.5880130856069557e-04 0.0000000000000000e+00  3.6841137769329943e-05 -2.4806596565558219e-04 0.0000000000000000e+00  3.0957440335713823e-05 -2.0530367812324554e-04 0.0000000000000000e+00  3.3755108022195821e-05 -2.4518348500131933e-04 0.0000000000000000e+00  0.0000000000000000e+00 0.0000000000000000e+00 0.0000000000000000e+00  0.0000000000000000e+00 0.0000000000000000e+00 0.0000000000000000e+00  4.9820314891453357e-06 -2.7025170755626967e-05 0.0000000000000000e+00  1.6619624354101227e-05 -8.9201480679762556e-05 0.0000000000000000e+00  1.5842927881001870e-05 -9.2059648067435647e-05 0.0000000000000000e+00  2.3323021414072145e-05 -1.7740155708537934e-04 0.0000000000000000e+00  3.8638152204525694e-05 -1.9352020789637766e-04 0.0000000000000000e+00  4.4896415941464368e-05 -2.3336585280056882e-04 0.0000000000000000e+00  2.9522087748515732e-05 -2.1364333670290702e-04 0.0000000000000000e+00  2.5549169009940129e-05 -1.8953393993838578e-04 0.0000000000000000e+00  2.6587933210615007e-05 -1.8428671402495679e-04 0.0000000000000000e+00  1.5405064487947255e-05 -5.5917016046501693e-05 0.0000000000000000e+00  3.8252133139053932e-05 -2.1999340749566141e-04 0.0000000000000000e+00  3.8214195181819641e-06 -2.1915104094135322e-05 0.0000000000000000e+00  3.0309312450817054e-05 -2.6701967098921478e-04 0.0000000000000000e+00  3.0189987316867678e-05 -2.7031985007862857e-04 0.0000000000000000e+00  3.6558530774229511e-05 -2.2870481937168206e-04 0.0000000000000000e+00  1.9546244647289083e-05 -1.3384756115925408e-04 0.0000000000000000e+00  1.1992517640835098e-05 -6.0650065982395888e-05 0.0000000000000000e+00  1.4466306160217666e-05 -1.0230840241740761e-04 0.0000000000000000e+00  5.3376300955732237e-05 -2.3000834352615134e-04 0.0000000000000000e+00  3.5057102233263535e-05 -2.4970357674047199e-04 0.0000000000000000e+00  3.5936178962150515e-05 -2.7673015763236527e-04 0.0000000000000000e+00  2.1852253904989854e-05 -1.5011004140563295e-04 0.0000000000000000e+00  3.7381801937444605e-05 -1.6433855729382582e-04 0.0000000000000000e+00  4.0227940479099451e-05 -2.8768886565116048e-04 0.0000000000000000e+00  3.6330797394121055e-05 -2.8183654388862618e-04 0.0000000000000000e+00  2.6337286106816524e-05 -2.0994346562937206e-04 0.0000000000000000e+00  0.0000000000000000e+00 0.0000000000000000e+00 0.0000000000000000e+00  6.1819869773677179e-05 -2.9461610366583220e-04 0.0000000000000000e+00  4.8673965575480831e-05 -2.8758003336999764e-04 0.0000000000000000e+00  4.7943437130759295e-05 -3.1357783286357975e-04 0.0000000000000000e+00  3.1674028904500228e-05 -2.9206960078094344e-04 0.0000000000000000e+00  3.7190275367854212e-05 -2.6799136615570832e-04 0.0000000000000000e+00  5.7133129250707444e-05 -2.3306522343232596e-04 0.0000000000000000e+00  0.0000000000000000e+00 0.0000000000000000e+00 0.0000000000000000e+00  1.1398927602702899e-05 -4.6329025266500822e-05 0.0000000000000000e+00  7.0074397535874975e-06 -2.6260371772882583e-05 0.0000000000000000e+00  1.2485476994478634e-05 -6.9781291397033024e-05 0.0000000000000000e+00  2.2916387539075665e-05 -1.4562222642383751e-04 0.0000000000000000e+00  5.4871679378772745e-05 -3.0828513678888013e-04 0.0000000000000000e+00  5.6568805821874754e-05 -2.9843714871941550e-04 0.0000000000000000e+00  3.4306098764330678e-05 -1.2023408478086991e-04 0.0000000000000000e+00  6.7900549013033210e-06 -2.9987146521697515e-05 0.0000000000000000e+00  1.3143874859990419e-05 -9.0695753990415958e-05 0.0000000000000000e+00  5.0037544719832672e-05 -2.7223877443170079e-04 0.0000000000000000e+00  4.3772831038744453e-05 -2.4420281249526595e-04 0.0000000000000000e+00  2.8123477056633338e-05 -2.2659957094476807e-04 0.0000000000000000e+00  2.8689216127981671e-05 -2.4212032469508280e-04 0.0000000000000000e+00  5.7749844764969278e-06 -2.9181837886138737e-05 0.0000000000000000e+00  1.3059097959673395e-05 -7.8889845147235923e-05 0.0000000000000000e+00  1.5728232586607860e-05 -1.0697201219150919e-04 0.0000000000000000e+00  2.4886849846710710e-05 -1.9155166532743419e-04 0.0000000000000000e+00  2.9636716899167175e-05 -2.2982442403646618e-04 0.0000000000000000e+00  3.3306919881288067e-05 -2.6319932806596116e-04 0.0000000000000000e+00  2.3433593201075511e-05 -1.2353166430398952e-04 0.0000000000000000e+00  5.3083288026186472e-05 -2.1145331264796417e-04 0.0000000000000000e+00  4.7900661456122899e-05 -1.9542318257025453e-04 0.0000000000000000e+00  3.7822807120499238e-05 -2.5451239579479953e-04 0.0000000000000000e+00  9.9217394977252557e-06 -5.3174907753804798e-05 0.0000000000000000e+00  3.8800193226556420e-05 -3.1580139320769502e-04 0.0000000000000000e+00  4.2913708179414335e-05 -2.7422178128865828e-04 0.0000000000000000e+00  2.3394480900214842e-05 -1.6400772180448712e-04 0.0000000000000000e+00  5.8158256046157341e-05 -2.2605873851818488e-04 0.0000000000000000e+00  2.5849759522688398e-05 -1.6958322994719126e-04 0.0000000000000000e+00  2.2838020065750365e-05 -1.5332846308378781e-04 0.0000000000000000e+00  8.1823808395341223e-06 -4.6149995972570870e-05 0.0000000000000000e+00  4.2269530077836047e-05 -2.5225039165058645e-04 0.0000000000000000e+00  3.9514161892881738e-05 -2.1138478090476572e-04 0.0000000000000000e+00  3.2882030641689931e-05 -2.4083195140753874e-04 0.0000000000000000e+00  0.0000000000000000e+00 0.0000000000000000e+00 0.0000000000000000e+00  8.3038462743337792e-06 -2.7600372686212498e-05 0.0000000000000000e+00  5.6414106257228303e-05 -2.5028892344961575e-04 0.0000000000000000e+00  1.0933093721001165e-05 -6.3905444401046865e-05 0.0000000000000000e+00  7.5408002192589404e-06 -4.4302158387381827e-05 0.0000000000000000e+00  6.0417319699662273e-05 -3.0384104555372524e-04 0.0000000000000000e+00  0.0000000000000000e+00 0.0000000000000000e+00 0.0000000000000000e+00  1.2465498917577565e-05 -8.3141108149414699e-05 0.0000000000000000e+00  4.3867949495901044e-05 -3.1983430478572201e-04 0.0000000000000000e+00  3.3183252792189427e-05 -2.2594290052672502e-04 0.0000000000000000e+00  2.1131369544919664e-05 -1.5062640671729253e-04 0.0000000000000000e+00  3.1308952971313507e-05 -2.6178885142834053e-04 0.0000000000000000e+00  2.8414633686148117e-05 -1.9075462078940589e-04 0.0000000000000000e+00  </DataArray> 
</PointData> 
</Piece>
</UnstructuredGrid>
</VTKFile>