<?xml version="1.0"?>
<VTKFile type="UnstructuredGrid"  version="0.1"  >
<UnstructuredGrid>
<Piece  NumberOfPoints="194" NumberOfCells="337">
<Points>
<DataArray  type="Float64"  NumberOfComponents="3"  format="ascii">0.3535460261755617 0.19 0  0.3528922713220932 0.2000185703532356 0  0.3590076176283495 0.196411355804271 0  0.3012679105156187 0.19 0  0.3006558810093873 0.1999966199048318 0  0.3066757059912147 0.1964092924317024 0  0.3473758401723931 0.1961819304478349 0  0.2950977245127906 0.1961819304477774 0  0.3535460261749672 0.21 0  0.3473758401724931 0.2038180695522752 0  0.301267910515333 0.21 0  0.2950977245128307 0.2038180695522663 0  0.3590471196690275 0.2036304442587945 0  0.3067669986803285 0.203627750582736 0  0.3796850840047755 0.200000000000134 0  0.3871533862418661 0.2029084173136212 0  0.3871533862424271 0.1959250838464788 0  0.3650630746574081 0.199866017807523 0  0.3722167817676917 0.2029084173136195 0  0.372246743208829 0.1959123236376545 0  0.3274069683451451 0.2000000000000796 0  0.3348752705822316 0.202908417313609 0  0.3347912413592433 0.1959225448935183 0  0.3127789816668748 0.1998657885438805 0  0.3199386661080599 0.202908417313604 0  0.3199680582793816 0.1959123018030061 0  0.3417402379596385 0.1998691686391011 0  0.3162045149895234 0.21 0  0.3236728172265972 0.21 0  0.3684826306491596 0.21 0  0.3759509328862226 0.21 0  0.3311411194636928 0.21 0  0.3386094217007701 0.21 0  0.383419235123329 0.21 0  0.3908875373604028 0.21 0  0.3460777239384295 0.19 0  0.2937996082782405 0.21 0  0.3460777239378666 0.21 0  0.3087362127527544 0.19 0  0.361014328412667 0.19 0  0.3796850840055151 0.1943028057712579 0  0.3647484795312433 0.1943028057712484 0  0.3274069683455914 0.1943028057712305 0  0.3124703638713219 0.1943028057712193 0  0.3610143284120516 0.21 0  0.3087362127524279 0.21 0  0.341834128962283 0.1943988119061815 0  0.3650260178642469 0.2054197153269502 0  0.3796850840047754 0.2056971942288865 0  0.3274069683451451 0.2056971942288527 0  0.312746837849954 0.2054193256016435 0  0.341845332858566 0.2054104280253135 0  0.3908875373612097 0.19 0  0.3834192351240934 0.19 0  0.3759509328869369 0.19 0  0.3684826306498175 0.19 0  0.3386094217012945 0.19 0  0.3311411194641595 0.19 0  0.3236728172270245 0.19 0  0.3162045149898895 0.19 0  0.2894621222999649 0.1998691686390484 0  0.2897864851748124 0.2055930218738881 0  0.3605639237643 0.2793006923612668 0  0.3754967205959606 0.2925860795314694 0  0.3727949441736886 0.2687069143756727 0  0.3265012756581966 0.2702065959162994 0  0.3425185051143286 0.277559411241074 0  0.3236350239119228 0.2946877384927431 0  0.3871536388992142 0.2768042805511501 0  0.3009672322348927 0.299853464475565 0  0.2860802002973516 0.3223921533999551 0  0.2799076752212695 0.2955946972235118 0  0.3656958473839882 0.2539056765427533 0  0.3826544750917113 0.2574975795502557 0  0.3742999258550256 0.2455889756585279 0  0.3119706532029335 0.280741853274607 0  0.29813678539982 0.236276478175315 0  0.3103932646053297 0.2435733951751842 0  0.2950877208402625 0.2480324151406079 0  0.3141745521466497 0.41 0  0.3098481778850767 0.3708824362367037 0  0.2803555148413351 0.3762695151888899 0  0.3830052789765099 0.2465504596596307 0  0.3236197880522565 0.342390365483443 0  0.3436434970543172 0.3743236175823911 0  0.3418128473615318 0.2384788409515084 0  0.353800124058392 0.2447246903927239 0  0.3411309613953146 0.2501451311933366 0  0.2941337443604631 0.2779157781414069 0  0.2609061472235815 0.2623077995666049 0  0.250265698216607 0.2591459325753045 0  0.2578547799253117 0.2736699879086193 0  0.3249956812055901 0.3123726632318911 0  0.2747137483983895 0.3519826740290966 0  0.2548303845886413 0.3306565522725438 0  0.2673795049878581 0.3181867883572329 0  0.3425309117203542 0.2940518961451331 0  0.3511864556906398 0.3079593845701901 0  0.2595321800985562 0.2853145787115269 0  0.2457579136251883 0.3036253283210157 0  0.245890675076073 0.2871394349824882 0  0.3803545031770169 0.2233799225275491 0  0.3909674209965625 0.2226356941037057 0  0.3868315570898186 0.2161590584307608 0  0.2959355069777989 0.2600507343559471 0  0.3100661524210835 0.2650982647042849 0  0.2632645194651774 0.3015808908677137 0  0.2741016576310038 0.41 0  0.2813918607378073 0.2642650598195126 0  0.2764818109814328 0.2785134123591192 0  0.3422532254316368 0.2186305831010365 0  0.3096074608005889 0.2332284277153185 0  0.3422976980851364 0.1814371791041619 0  0.3871183818181629 0.1813492091082587 0  0.2802365149396702 0.2293267412254819 0  0.2854688561834498 0.2412236914981949 0  0.2897734241776366 0.2309782844302881 0  0.3641563190507836 0.3179653487982807 0  0.3419145640611154 0.3257454339814842 0  0.34764135913642 0.3491933721956422 0  0.2888197773682229 0.2217624015035644 0  0.3054340412842468 0.3221719107153626 0  0.3797734699465006 0.2157346552691785 0  0.3556974926297398 0.41 0  0.3342575907952841 0.223845352414335 0  0.330395134354505 0.2334931151381134 0  0.3420126050355882 0.2289014753216907 0  0.3527566348295874 0.2550544260512217 0  0.3422261770849799 0.2620435439696853 0  0.3570962000964671 0.2658531600023138 0  0.3298536818655586 0.2450564271365737 0  0.3717783033973493 0.3492929215517201 0  0.299175979503955 0.3443721019725888 0  0.3024586873317863 0.2302383467013988 0  0.319313320275104 0.2539540926591672 0  0.3056884213926414 0.2536577882881167 0  0.2627897304119148 0.25271037528669 0  0.2973772572263381 0.2175617982546508 0  0.3647216780759439 0.2309636620771321 0  0.3532661195270175 0.2336617303183129 0  0.3647485037428231 0.2414648470797462 0  0.3765649579409498 0.2346032306023708 0  0.3862411203249935 0.2293080201888169 0  0.3125541355310679 0.2174284626835578 0  0.3272784643395017 0.2174232629457372 0  0.3125543224194783 0.1825714068210268 0  0.3272791508030818 0.1825813053721834 0  0.3348752705822316 0.2165201420472217 0  0.3572801772935104 0.2173273935815939 0  0.3497998287380586 0.2162289176852799 0  0.3722102571583817 0.2173806806735415 0  0.3647484950731696 0.1690362455853913 0  0.3534047339781095 0.1664079800909994 0  0.3646043070190422 0.1595814785132252 0  0.3573906953035386 0.1825704874733474 0  0.3721062650880237 0.1825704912629938 0  0.334769373574778 0.1838585991320073 0  0.319877191385679 0.2308174713545124 0  0.3199271849027431 0.2215499206710377 0  0.3133403253306649 0.2254657033957812 0  0.3758459195692864 0.1665688727818971 0  0.3498118750569956 0.1834818329761723 0  0.3198433526340244 0.2406043114931417 0  0.398571556794488 0.2667712515333163 0  0.3264603545297456 0.2254677777931837 0  0.3796850840055151 0.1834818329761566 0  0.350235271979906 0.176105405901683 0  0.3498118750564168 0.2244634883974543 0  0.3933451459320382 0.2499378971246431 0  0.3792616967340072 0.1761054533295981 0  0.3582214469498746 0.2931659544846034 0  0.267810768800799 0.2705998356288453 0  0.357905755861004 0.2256377483552234 0  0.3052148703286661 0.2238647990797835 0  0.3050207387251377 0.2160025078068285 0  0.2863686241214745 0.2524447136573785 0  0.364747590224077 0.2216658739063822 0  0.3716385577875085 0.2254972730720332 0  0.3871533862418662 0.2377916209307866 0  0.2751288526855082 0.2504894696471402 0  0.3647484799225001 0.1783360555704042 0  0.3580172190788822 0.1744509634985612 0  0.3714797435049115 0.1744509558619459 0  0.3312445077953667 0.2576480961126658 0  0.2703064389008618 0.2603298038584663 0  0.3870163828938027 0.1711802904735331 0  0.2969986277115119 0.2264901249637967 0  0.3199311709679444 0.2151099596031206 0  0.3199315490584526 0.1848904494130124 0  0.3647474910084925 0.215095947068514 0  0.3647484797606208 0.1848841839272463 0  0.3871533862426517 0.1622083790690482 0  0.3199291472277772 0.1784487091275169 0  0.3951819405974831 0.2310626528016624 0  </DataArray>
</Points>
<Cells>
<DataArray  type="UInt32"  Name="connectivity"  format="ascii">0 1 2  3 4 5  0 1 6  3 4 7  8 1 9  10 4 11  8 1 12  10 4 13  14 15 16  17 18 19  20 21 22  23 24 25  20 24 25  26 21 22  14 18 19  27 28 24  29 30 18  31 32 21  33 34 15  0 35 6  36 10 11  37 8 9  38 3 5  39 0 2  14 16 40  17 19 41  20 22 42  23 25 43  20 25 42  14 19 40  8 44 12  10 45 13  26 22 46  29 18 47  30 18 48  17 18 47  28 24 49  33 15 48  27 24 50  31 21 49  14 15 48  14 18 48  23 24 50  20 24 49  20 21 49  32 21 51  26 21 51  52 53 16  54 55 19  56 57 22  58 59 25  17 2 12  23 5 13  1 2 12  4 5 13  54 19 40  53 16 40  55 19 41  57 22 42  59 25 43  58 25 42  4 11 7  60 11 7  1 9 6  26 9 6  56 22 46  23 13 50  17 12 47  35 56 46  32 37 51  53 54 40  55 39 41  44 29 47  30 33 48  57 58 42  59 38 43  28 31 49  45 27 50  44 12 47  45 13 50  17 2 41  39 2 41  23 5 43  38 5 43  35 6 46  36 11 61  37 9 51  60 11 61  26 9 51  26 6 46  62 63 64  65 66 67  68 63 64  69 70 71  72 73 74  69 75 67  76 77 78  79 80 81  73 74 82  83 80 84  85 86 87  69 75 88  89 90 91  75 65 67  79 80 84  69 92 67  93 94 95  96 92 97  98 99 100  94 99 95  93 70 95  101 102 103  104 88 105  106 71 95  79 107 81  106 99 95  70 71 95  104 88 108  109 98 71  32 37 110  76 77 111  35 56 112  96 92 67  52 53 113  109 88 71  114 115 116  117 118 119  114 120 116  83 92 121  101 122 103  72 73 64  123 79 84  96 66 67  124 125 126  86 87 127  128 66 129  69 70 121  109 88 108  85 130 125  131 117 119  106 98 99  83 80 132  76 111 133  85 125 126  93 132 81  83 132 121  134 65 105  76 115 116  106 98 71  69 92 121  77 78 135  69 88 71  75 88 105  89 90 136  36 10 137  76 115 78  138 139 140  83 84 119  92 118 97  138 141 140  85 86 139  101 102 142  134 77 135  45 27 143  28 31 144  131 84 119  59 38 145  57 58 146  32 110 147  8 44 148  68 73 64  37 110 149  80 132 81  29 30 150  151 152 153  39 0 154  124 144 147  54 55 155  56 112 156  157 158 159  151 160 153  85 130 87  35 112 161  157 111 162  68 73 163  157 158 164  53 113 165  101 150 122  166 154 161  167 148 149  157 125 162  73 163 168  169 155 165  62 63 170  86 139 140  134 77 162  109 98 171  124 110 126  138 172 139  93 70 132  62 66 129  173 143 174  75 65 105  104 108 175  138 176 172  167 110 126  138 176 177  178 141 82  62 66 170  134 105 135  179 108 175  124 144 164  173 137 174  128 65 66  117 63 170  134 130 162  10 137 174  151 180 181  74 141 140  173 143 159  138 177 141  151 180 182  134 130 183  83 92 118  77 111 162  179 136 184  167 148 172  10 45 174  167 139 126  101 150 177  31 32 147  98 100 91  169 113 185  37 8 149  98 91 171  56 57 156  30 33 122  0 35 161  166 154 181  151 181 152  134 65 183  173 137 186  53 54 165  45 143 174  74 141 82  178 141 142  151 182 160  117 170 97  76 116 186  169 155 182  31 144 147  124 110 147  179 108 184  101 141 142  70 132 121  169 160 185  130 125 162  57 146 156  8 148 149  128 127 129  30 150 122  120 116 186  0 154 161  166 112 161  108 184 171  54 155 165  96 66 170  167 110 149  72 86 140  179 115 175  27 143 187  72 74 140  28 144 187  59 145 188  169 113 165  85 139 126  58 146 188  128 65 183  109 108 171  44 148 189  29 150 189  39 154 190  55 155 190  130 87 183  33 34 103  191 160 185  173 111 159  120 137 186  104 78 175  89 136 184  72 86 127  158 143 159  167 172 139  157 111 159  33 122 103  158 144 164  101 177 141  157 125 164  124 125 164  176 148 172  166 181 152  176 150 177  72 64 129  104 105 135  76 186 133  158 143 187  169 182 160  158 144 187  173 111 133  180 154 181  128 87 127  115 78 175  180 155 182  192 145 188  192 146 188  27 28 187  58 59 188  176 148 189  44 29 189  176 150 189  55 39 190  180 154 190  180 155 190  83 118 119  102 193 142  62 64 129  117 118 97  104 78 135  178 193 142  178 168 82  128 87 183  72 127 129  173 186 133  73 168 82  89 91 171  89 184 171  96 170 97  </DataArray>
<DataArray  type="UInt32"  Name="offsets"  format="ascii">3 6 9 12 15 18 21 24 27 30 33 36 39 42 45 48 51 54 57 60 63 66 69 72 75 78 81 84 87 90 93 96 99 102 105 108 111 114 117 120 123 126 129 132 135 138 141 144 147 150 153 156 159 162 165 168 171 174 177 180 183 186 189 192 195 198 201 204 207 210 213 216 219 222 225 228 231 234 237 240 243 246 249 252 255 258 261 264 267 270 273 276 279 282 285 288 291 294 297 300 303 306 309 312 315 318 321 324 327 330 333 336 339 342 345 348 351 354 357 360 363 366 369 372 375 378 381 384 387 390 393 396 399 402 405 408 411 414 417 420 423 426 429 432 435 438 441 444 447 450 453 456 459 462 465 468 471 474 477 480 483 486 489 492 495 498 501 504 507 510 513 516 519 522 525 528 531 534 537 540 543 546 549 552 555 558 561 564 567 570 573 576 579 582 585 588 591 594 597 600 603 606 609 612 615 618 621 624 627 630 633 636 639 642 645 648 651 654 657 660 663 666 669 672 675 678 681 684 687 690 693 696 699 702 705 708 711 714 717 720 723 726 729 732 735 738 741 744 747 750 753 756 759 762 765 768 771 774 777 780 783 786 789 792 795 798 801 804 807 810 813 816 819 822 825 828 831 834 837 840 843 846 849 852 855 858 861 864 867 870 873 876 879 882 885 888 891 894 897 900 903 906 909 912 915 918 921 924 927 930 933 936 939 942 945 948 951 954 957 960 963 966 969 972 975 978 981 984 987 990 993 996 999 1002 1005 1008 1011 </DataArray>
<DataArray  type="UInt8"  Name="types"  format="ascii">5 5 5 5 5 5 5 5 5 5 5 5 5 5 5 5 5 5 5 5 5 5 5 5 5 5 5 5 5 5 5 5 5 5 5 5 5 5 5 5 5 5 5 5 5 5 5 5 5 5 5 5 5 5 5 5 5 5 5 5 5 5 5 5 5 5 5 5 5 5 5 5 5 5 5 5 5 5 5 5 5 5 5 5 5 5 5 5 5 5 5 5 5 5 5 5 5 5 5 5 5 5 5 5 5 5 5 5 5 5 5 5 5 5 5 5 5 5 5 5 5 5 5 5 5 5 5 5 5 5 5 5 5 5 5 5 5 5 5 5 5 5 5 5 5 5 5 5 5 5 5 5 5 5 5 5 5 5 5 5 5 5 5 5 5 5 5 5 5 5 5 5 5 5 5 5 5 5 5 5 5 5 5 5 5 5 5 5 5 5 5 5 5 5 5 5 5 5 5 5 5 5 5 5 5 5 5 5 5 5 5 5 5 5 5 5 5 5 5 5 5 5 5 5 5 5 5 5 5 5 5 5 5 5 5 5 5 5 5 5 5 5 5 5 5 5 5 5 5 5 5 5 5 5 5 5 5 5 5 5 5 5 5 5 5 5 5 5 5 5 5 5 5 5 5 5 5 5 5 5 5 5 5 5 5 5 5 5 5 5 5 5 5 5 5 5 5 5 5 5 5 5 5 5 5 5 5 5 5 5 5 5 5 5 5 5 5 5 5 5 5 5 5 5 5 5 5 5 5 5 5 5 5 5 5 5 5 </DataArray>
</Cells>
<PointData  Vectors="f_43-0"> 
<DataArray  type="Float64"  Name="f_43-0"  NumberOfComponents="3" format="ascii">-4.5889046595912716e-06 9.7811732511270908e-05 0.0000000000000000e+00  -3.2852429642641946e-06 9.8458871121413432e-05 0.0000000000000000e+00  -2.7239328117864832e-06 9.7342376130641421e-05 0.0000000000000000e+00  3.8230593213637092e-06 5.7438729342951574e-05 0.0000000000000000e+00  -8.4192798621042435e-06 5.9649087548624069e-05 0.0000000000000000e+00  -4.6291650072031400e-06 6.6840042920392111e-05 0.0000000000000000e+00  -4.3615808505074791e-06 9.8370977736352474e-05 0.0000000000000000e+00  -3.1256373244828537e-06 5.0533866126476210e-05 0.0000000000000000e+00  -2.1809794791867591e-06 9.6737188032451350e-05 0.0000000000000000e+00  -5.0109974162829606e-06 9.8227114362434460e-05 0.0000000000000000e+00  -2.1510720674673589e-05 6.2917805166742586e-05 0.0000000000000000e+00  -1.2837328256121101e-05 5.2881562490675732e-05 0.0000000000000000e+00  -5.0563808676218043e-07 9.6747936059958902e-05 0.0000000000000000e+00  -1.3005122423752557e-05 6.8692786531236204e-05 0.0000000000000000e+00  5.3242553021087081e-06 8.3317056746563586e-05 0.0000000000000000e+00  1.1694033937651463e-05 7.4214694487877598e-05 0.0000000000000000e+00  3.2357469310706750e-06 7.5425722122757075e-05 0.0000000000000000e+00  1.8218984545872799e-07 9.4664957599025303e-05 0.0000000000000000e+00  4.7807384458151729e-06 8.9513560594720772e-05 0.0000000000000000e+00  -4.2786028282206494e-07 9.0360424943275333e-05 0.0000000000000000e+00  -8.0259192681272249e-06 8.9647974993661061e-05 0.0000000000000000e+00  -8.4955920167575967e-06 9.4590940122093794e-05 0.0000000000000000e+00  -5.1332107962351194e-06 9.4067054837362223e-05 0.0000000000000000e+00  -8.6932242800378819e-06 7.5282273803232760e-05 0.0000000000000000e+00  -1.1266112526831017e-05 8.3443928609285692e-05 0.0000000000000000e+00  -5.0019653068298897e-06 8.2327076450894212e-05 0.0000000000000000e+00  -5.8132796527920692e-06 9.7347086396759689e-05 0.0000000000000000e+00  -1.9275918416612663e-05 8.0257315038698756e-05 0.0000000000000000e+00  -1.7002795040066866e-05 8.6990541293152437e-05 0.0000000000000000e+00  7.4330424144074285e-06 9.0317368124989065e-05 0.0000000000000000e+00  1.2507947746691689e-05 8.4310951785220080e-05 0.0000000000000000e+00  -1.4059786080659158e-05 9.2136842616959537e-05 0.0000000000000000e+00  -1.0557433149794192e-05 9.5532422106830967e-05 0.0000000000000000e+00  1.7681800953376542e-05 7.6520096516339076e-05 0.0000000000000000e+00  2.2885419595548372e-05 6.7037111999148442e-05 0.0000000000000000e+00  -3.9180165849554587e-06 9.7335769016062163e-05 0.0000000000000000e+00  -2.1352646211003580e-05 5.2940818928003397e-05 0.0000000000000000e+00  -6.5617486975686650e-06 9.7083353946080228e-05 0.0000000000000000e+00  2.4283325547172271e-06 6.7570297384427473e-05 0.0000000000000000e+00  -4.9803813058601789e-06 9.6291555731520186e-05 0.0000000000000000e+00  -3.2245851157918132e-07 8.3909997220169016e-05 0.0000000000000000e+00  -2.7558672121247754e-06 9.5064345759392603e-05 0.0000000000000000e+00  -4.1093096239621350e-06 8.8752149751198116e-05 0.0000000000000000e+00  -2.8698149389034490e-06 7.3583486733457958e-05 0.0000000000000000e+00  2.5089246615037760e-06 9.4474169424039404e-05 0.0000000000000000e+00  -2.0814203253450055e-05 7.2132454728030356e-05 0.0000000000000000e+00  -4.4304607972708449e-06 9.6967758838891553e-05 0.0000000000000000e+00  2.9250440578984385e-06 9.3760840949428932e-05 0.0000000000000000e+00  1.0884022252819563e-05 8.2048507462935847e-05 0.0000000000000000e+00  -1.2180157091583433e-05 8.9948699037649556e-05 0.0000000000000000e+00  -1.4709129740545839e-05 7.6181399598137289e-05 0.0000000000000000e+00  -7.3669438581961425e-06 9.7139729628516208e-05 0.0000000000000000e+00  -3.6986021612373087e-06 7.0945910648828934e-05 0.0000000000000000e+00  -4.4362099346366137e-06 8.0034594222455190e-05 0.0000000000000000e+00  -4.9020415574716886e-06 8.7345382281173051e-05 0.0000000000000000e+00  -5.0863770979080671e-06 9.2787046364073392e-05 0.0000000000000000e+00  -2.9870887900288592e-06 9.4886402494883084e-05 0.0000000000000000e+00  -1.8337118648137648e-06 9.0535950290825942e-05 0.0000000000000000e+00  -4.9851172114610400e-07 8.4403112820414183e-05 0.0000000000000000e+00  9.4587794299495798e-07 7.6670013117980859e-05 0.0000000000000000e+00  -7.0894335984236464e-06 4.3425331091906026e-05 0.0000000000000000e+00  -1.4591538886695167e-05 4.5845528851121870e-05 0.0000000000000000e+00  7.2949936637432800e-01 -9.9580109072188838e-02 0.0000000000000000e+00  7.7304503164172156e-01 -8.1322057409398588e-02 0.0000000000000000e+00  6.6087471189707625e-01 -9.3396579571896551e-02 0.0000000000000000e+00  6.7911437668633690e-01 -1.2449810951716546e-01 0.0000000000000000e+00  7.3354897867655078e-01 -1.1190838049920980e-01 0.0000000000000000e+00  8.4597666771129043e-01 -8.9014533537806528e-02 0.0000000000000000e+00  7.0675714685100088e-01 -8.2137513576137230e-02 0.0000000000000000e+00  8.9858241892934942e-01 -6.8271267203148203e-02 0.0000000000000000e+00  8.8971477990513659e-01 -1.8156881185691809e-02 0.0000000000000000e+00  9.4131876781255164e-01 -5.3723823159741162e-02 0.0000000000000000e+00  5.3868810152901592e-01 -8.7470160134991537e-02 0.0000000000000000e+00  5.8812341409854629e-01 -7.8076809231256816e-02 0.0000000000000000e+00  4.8215805250018212e-01 -6.6187374628665710e-02 0.0000000000000000e+00  7.9558711085423972e-01 -1.1389427577454474e-01 0.0000000000000000e+00  1.6412621191499924e-01 -6.2499720437895624e-02 0.0000000000000000e+00  2.9744424477155845e-01 -9.1131170567134934e-02 0.0000000000000000e+00  3.1902324638078478e-01 -9.7940970005049768e-02 0.0000000000000000e+00  0.0000000000000000e+00 0.0000000000000000e+00 0.0000000000000000e+00  7.3135422028026698e-01 -2.0263949482078998e-02 0.0000000000000000e+00  6.9806921985600290e-01 -7.6583541681730745e-03 0.0000000000000000e+00  5.0651048968547352e-01 -6.1753208733825213e-02 0.0000000000000000e+00  8.2173631345413500e-01 -3.5594472764452691e-02 0.0000000000000000e+00  6.8854372349996784e-01 -2.5125905471523203e-02 0.0000000000000000e+00  3.3324939390821934e-01 -6.8731372820505496e-02 0.0000000000000000e+00  4.2952326557157966e-01 -7.8792540955369583e-02 0.0000000000000000e+00  4.5884613567553262e-01 -9.9150958618627494e-02 0.0000000000000000e+00  8.0349967990000903e-01 -1.1193674046553648e-01 0.0000000000000000e+00  5.4766700688218606e-01 -8.7869926210991905e-02 0.0000000000000000e+00  4.5050259563782158e-01 -7.1662024348246797e-02 0.0000000000000000e+00  8.1650036146087357e-01 -6.9635237272000217e-02 0.0000000000000000e+00  8.5866112445060061e-01 -6.2535903544651494e-02 0.0000000000000000e+00  8.0745505108935134e-01 1.1244472035316852e-03 0.0000000000000000e+00  8.7850815424752260e-01 2.8577580837993184e-02 0.0000000000000000e+00  9.1773408457403827e-01 3.1876975413146183e-03 0.0000000000000000e+00  8.1305155462061152e-01 -9.1194171055424808e-02 0.0000000000000000e+00  8.2505615840828583e-01 -7.2090953961834001e-02 0.0000000000000000e+00  9.6045869979762943e-01 -3.8242144671859525e-02 0.0000000000000000e+00  9.9101987957070314e-01 3.8593519234160864e-02 0.0000000000000000e+00  1.0083390146654105e+00 6.8071598885609793e-03 0.0000000000000000e+00  2.6384075725249567e-01 -1.4367280178180076e-02 0.0000000000000000e+00  2.7026983921570347e-01 -1.1073068387230628e-02 0.0000000000000000e+00  1.4546331159699785e-01 -3.1411187430359501e-03 0.0000000000000000e+00  5.2890859921059297e-01 -1.2226463142897397e-01 0.0000000000000000e+00  6.1857593200556149e-01 -1.2869877016694395e-01 0.0000000000000000e+00  9.7490542078469888e-01 -8.7660364321240723e-03 0.0000000000000000e+00  0.0000000000000000e+00 0.0000000000000000e+00 0.0000000000000000e+00  6.0014966985142182e-01 -1.1484585512178275e-01 0.0000000000000000e+00  8.4676198302993477e-01 -9.0363395892358700e-02 0.0000000000000000e+00  1.1791657066290592e-01 -1.0263432744459698e-02 0.0000000000000000e+00  1.6973422434641885e-01 -5.6434653666593670e-02 0.0000000000000000e+00  1.2060840156489912e-01 1.0230435034898995e-02 0.0000000000000000e+00  1.9765149338243007e-01 5.8772271516366143e-03 0.0000000000000000e+00  3.9414550775752483e-02 -2.5554359670831066e-02 0.0000000000000000e+00  1.8518424080151874e-01 -6.8049926681296474e-02 0.0000000000000000e+00  8.0570056643093191e-02 -3.9123882562606800e-02 0.0000000000000000e+00  8.1540733265934118e-01 -6.1310976435549148e-02 0.0000000000000000e+00  8.3287237879498399e-01 -5.2813800287284836e-02 0.0000000000000000e+00  8.0099184080142627e-01 -3.8940909222544673e-02 0.0000000000000000e+00  1.2263624779337651e-02 -1.3854536693958345e-02 0.0000000000000000e+00  8.7151890012332223e-01 -3.7206475346699658e-02 0.0000000000000000e+00  1.2967280892964184e-01 -3.1006951733068954e-03 0.0000000000000000e+00  0.0000000000000000e+00 0.0000000000000000e+00 0.0000000000000000e+00  1.5701184421676234e-01 -2.4686010915585938e-02 0.0000000000000000e+00  2.4425070924749456e-01 -5.6732445726559583e-02 0.0000000000000000e+00  2.3440952143132868e-01 -3.8731331615844786e-02 0.0000000000000000e+00  5.3106809794420973e-01 -9.9285102755318586e-02 0.0000000000000000e+00  5.9235322199406870e-01 -1.1414922805944500e-01 0.0000000000000000e+00  6.3527401484270363e-01 -1.0495649913288260e-01 0.0000000000000000e+00  3.7257991405407953e-01 -9.2793932460046066e-02 0.0000000000000000e+00  7.8477488593477285e-01 -3.9213701458048748e-02 0.0000000000000000e+00  8.2775096474950804e-01 -1.9748060553648819e-02 0.0000000000000000e+00  1.1471481758662340e-01 -4.3986700847463950e-02 0.0000000000000000e+00  4.6547304491568475e-01 -1.1629390761500068e-01 0.0000000000000000e+00  4.3560463631804103e-01 -1.1585481183408092e-01 0.0000000000000000e+00  3.1415748416182121e-01 -7.2438872175655977e-02 0.0000000000000000e+00  1.1253026130349753e-02 -7.4441166734586879e-03 0.0000000000000000e+00  3.2214428369651910e-01 -3.6631681994706865e-02 0.0000000000000000e+00  3.1818404077504059e-01 -4.9135013408580556e-02 0.0000000000000000e+00  4.2465802942780401e-01 -6.3779215684703669e-02 0.0000000000000000e+00  3.8888432308048937e-01 -4.0285857716662196e-02 0.0000000000000000e+00  3.5384338671627613e-01 -2.4461337549703182e-02 0.0000000000000000e+00  4.0890788841525680e-02 -8.4127306578725414e-03 0.0000000000000000e+00  7.2012981412819116e-02 -8.4677301612454941e-03 0.0000000000000000e+00  4.4007958480813944e-02 8.6530807665208629e-03 0.0000000000000000e+00  7.5223985168018204e-02 8.6390521437124078e-03 0.0000000000000000e+00  7.7324109842074856e-02 -6.5002028811647810e-03 0.0000000000000000e+00  1.2829141008580555e-01 -6.5771534553815576e-03 0.0000000000000000e+00  9.9250686594336071e-02 -5.3079132560504162e-03 0.0000000000000000e+00  1.5202710366782901e-01 -5.5192592405666719e-03 0.0000000000000000e+00  3.2716768000489921e-01 3.6211108859783125e-02 0.0000000000000000e+00  3.2349437073954973e-01 4.8470558180707786e-02 0.0000000000000000e+00  4.2039784156093490e-01 6.0511175533348296e-02 0.0000000000000000e+00  1.3292454570227058e-01 6.8255223026166155e-03 0.0000000000000000e+00  1.5523984617454534e-01 5.6333759659407548e-03 0.0000000000000000e+00  7.5537094032445962e-02 5.9884656491998841e-03 0.0000000000000000e+00  1.8051009932318560e-01 -4.8888246426640969e-02 0.0000000000000000e+00  9.2479649356540961e-02 -1.8893616407170345e-02 0.0000000000000000e+00  1.0719202883621505e-01 -3.0520839140869942e-02 0.0000000000000000e+00  3.8040990919956902e-01 3.7259457515379908e-02 0.0000000000000000e+00  1.0627731591238875e-01 5.8906868855357446e-03 0.0000000000000000e+00  2.8907941490280559e-01 -8.2171963085954577e-02 0.0000000000000000e+00  6.5767147369899182e-01 -7.2423064923852115e-02 0.0000000000000000e+00  1.4944341009083331e-01 -3.0527380999765704e-02 0.0000000000000000e+00  1.4730598165575248e-01 3.9931376257745250e-03 0.0000000000000000e+00  2.0703446291173488e-01 2.2037363555742491e-02 0.0000000000000000e+00  2.0820060604295920e-01 -2.3717731679640530e-02 0.0000000000000000e+00  5.4870774145938972e-01 -5.9822073053399934e-02 0.0000000000000000e+00  2.7278366724620090e-01 1.5367069472954605e-02 0.0000000000000000e+00  7.9038464299707734e-01 -8.8163708790566800e-02 0.0000000000000000e+00  7.3491135829375531e-01 -9.3681427774117434e-02 0.0000000000000000e+00  2.4379086829716395e-01 -2.4831515443131797e-02 0.0000000000000000e+00  6.8522832229760147e-02 -2.4368624438433746e-02 0.0000000000000000e+00  1.8092282494054014e-02 -5.3977205225128923e-03 0.0000000000000000e+00  3.7307167824851439e-01 -1.0263253600312633e-01 0.0000000000000000e+00  2.0783971049472247e-01 -1.3993139309124854e-02 0.0000000000000000e+00  2.7522012649089755e-01 -2.0804258938174905e-02 0.0000000000000000e+00  4.4233205181604235e-01 -4.1694212114781429e-02 0.0000000000000000e+00  3.0529563833009543e-01 -8.4008465866700369e-02 0.0000000000000000e+00  2.1145625306830421e-01 1.3910607658893138e-02 0.0000000000000000e+00  2.4751738118537003e-01 2.4406214388824930e-02 0.0000000000000000e+00  2.7957952625890320e-01 2.0732569699494861e-02 0.0000000000000000e+00  5.3215065730772271e-01 -1.1699048760072939e-01 0.0000000000000000e+00  5.0707883111962260e-01 -9.9024623511803286e-02 0.0000000000000000e+00  3.5340201230271306e-01 2.2721747280887140e-02 0.0000000000000000e+00  6.4286340147409804e-02 -2.9768418305356870e-02 0.0000000000000000e+00  3.7293036652409975e-02 -4.2864538389210931e-03 0.0000000000000000e+00  3.9719811284895719e-02 4.4745436114009326e-03 0.0000000000000000e+00  1.0100497663012367e-01 -3.0572605947526139e-03 0.0000000000000000e+00  1.0337160833792856e-01 3.1984916013647379e-03 0.0000000000000000e+00  4.4702779262377706e-01 4.0835156800487021e-02 0.0000000000000000e+00  9.6804154770509673e-02 1.9159396482669892e-02 0.0000000000000000e+00  3.9150151119871041e-01 -2.4536572498127598e-02 0.0000000000000000e+00  </DataArray> 
</PointData> 
</Piece>
</UnstructuredGrid>
</VTKFile>